LAMMPS data file via write_data, version 17 Nov 2016, timestep = 0
      
  1500 atoms
      
1 atom types
  -5.7235712129999996        5.7235712129999996      xlo xhi
  -5.7235712129999996        5.7235712129999996      ylo yhi
  -5.7235712129999996        5.7235712129999996      zlo zhi
Masses
      
1 1
      
Pair Coeffs # lj/poly
      
                               1 1.0 1.0 2.025 1.25 0.2
      
Atoms # charge
      
           1           1  0.82965299999999997       -5.5468101345517038       -4.8800717290679971       -5.2676322510696618                0           0           0
           2           1   1.5413479999999999       -4.5810338550494931       -5.2704493062768574       -4.7587499508795998                0           0           0
           3           1  0.86062700000000003       -3.8039802750552734       -4.7652882640683378       -5.4939616577628687                0           0           0
           4           1   1.2325940000000000       -3.1788125375051073       -5.2245887487787659       -4.6613599484050958                0           0           0
           5           1  0.92110899999999996       -2.0820050694617711       -4.8914031427352977       -4.8955772226019780                0           0           0
           6           1   1.5043869999999999       -1.0406739441094635       -4.7247387869715176       -5.4693959608400391                0           0           0
           7           1  0.88103100000000001      -0.20815346510829613       -5.1645001503757424       -4.7363392733516685                0           0           0
           8           1  0.92227999999999999       0.28841386703594019       -4.6682200743111748       -5.4659818904756223                0           0           0
           9           1   1.5129459999999999       0.93342735924380626       -5.5207375634177005       -4.9761100888644707                0           0           0
          10           1  0.87097899999999995        2.1116355286154258       -5.5775742801101460       -4.7677672652377048                0           0           0
          11           1  0.82823300000000000        1.9362355613802160       -5.3944097857414537       -5.6927569365218647                0           0           0
          12           1   1.3333429999999999        3.0308241005978154       -5.3226872052104666       -5.5281325254914329                0           0           0
          13           1  0.81986499999999995        4.1232428818457016       -5.3064600715331665       -5.3209703380495057                0           0           0
          14           1  0.74748000000000003        3.5247793492085968       -5.5382578488980574       -4.6422703967387733                0           0           0
          15           1  0.86770400000000003        4.9212163282738430       -4.8168727716798605       -4.9813966402586018                0           0           0
          16           1  0.73948999999999998        4.6890903279825142       -5.6953733306354382       -4.7982373547502393                0           0           0
          17           1   1.1174949999999999       -4.8047417238039429       -4.1508765166474353       -5.5316303363017827                0           0           0
          18           1   1.0167780000000000       -4.0186084626697172       -4.1364477507310564       -4.6495047373880949                0           0           0
          19           1   1.0699300000000000       -2.8673085946760155       -4.0606594955462736       -4.8569714716500085                0           0           0
          20           1  0.76943799999999996       -1.9694872026615706       -4.0805085651295290       -5.3019301853829308                0           0           0
          21           1   1.0829869999999999      -0.23794600888165185       -3.7568686060749474       -5.6600754407528644                0           0           0
          22           1   1.3859269999999999       0.97827280151128715       -3.6861966466445057       -5.3541134302823927                0           0           0
          23           1  0.77240699999999995        1.0855377207168759       -4.5010738674913124       -4.6457660252313211                0           0           0
          24           1   1.1917739999999999        2.0258696023192728       -4.5376269573429866       -4.9937389771332219                0           0           0
          25           1  0.76583000000000001        1.8088537300555902       -3.5343523007735000       -4.7290078694809115                0           0           0
          26           1  0.97774899999999998        2.1649124898657526       -3.5621632030921915       -5.6150543607187924                0           0           0
          27           1  0.83108000000000004        2.9320375537790042       -4.1966194056645634       -5.3713068087910889                0           0           0
          28           1   1.2215430000000000        3.9893593319575800       -4.2746556784440521       -5.2403828533154053                0           0           0
          29           1   1.3806490000000000        5.3910323758774084       -3.8300746983834486       -5.3299583263021786                0           0           0
          30           1   1.0400879999999999       -5.1656842515472574       -2.9724128396851621       -5.6333784469707444                0           0           0
          31           1  0.77126099999999997       -4.2857707738164974       -3.2892426831406660       -5.2699315733170442                0           0           0
          32           1  0.92384800000000000       -4.2932761608272134       -2.3906401786423457       -4.9405581897923554                0           0           0
          33           1  0.88862900000000000       -2.3262717370571462       -3.1332892176175973       -4.8718420718312316                0           0           0
          34           1  0.86158199999999996       -3.0710717452718557       -2.8370747133100833       -5.5418708370024889                0           0           0
          35           1   1.1209890000000000       -1.3088452169865707       -3.3556141981998371       -5.2619595134110080                0           0           0
          36           1   1.2420370000000001      -0.20115456714949254       -2.9274430044194246       -4.7171320021402101                0           0           0
          37           1  0.88274100000000000       -1.0389468679389049       -2.3283989384595154       -5.1651052095217382                0           0           0
          38           1   1.0668899999999999       0.70304618720469758       -2.4484896746315594       -5.4118298949319747                0           0           0
          39           1   1.1892499999999999        1.8728518147959035       -2.5749377703824092       -5.0842916031042762                0           0           0
          40           1  0.78319600000000000        2.8159104619829360       -2.8141237410567204       -5.3730765633463253                0           0           0
          41           1  0.77194799999999997        2.7271856939876553       -2.2937841975831992       -4.5380255399486522                0           0           0
          42           1  0.74873199999999995        3.6774045406158606       -3.3201852961848606       -5.1738986791051769                0           0           0
          43           1   1.0263439999999999        4.5253134933312733       -3.2035976552913215       -4.7588003297497501                0           0           0
          44           1  0.81308199999999997        4.5620632282699720       -2.4832128507867410       -5.4216799479342184                0           0           0
          45           1   1.1161060000000000        3.6439899372917921       -2.3695973265006329       -4.9789956547182443                0           0           0
          46           1   1.2125560000000000        5.4790538019121868       -2.4272260866658457       -4.9193027285447428                0           0           0
          47           1  0.74192100000000005       -5.0314107919021360       -2.0615450453124398       -5.3474729712356313                0           0           0
          48           1  0.91800800000000005       -4.1457569431228904       -1.5525168982711639       -5.5031685171301046                0           0           0
          49           1  0.83222700000000005       -3.2286376856836099       -1.9509118299336330       -5.2752571650930902                0           0           0
          50           1   1.0095200000000000       -2.5306313296993324       -1.2229241368220336       -4.8859305117077954                0           0           0
          51           1   1.4893410000000000       -2.1333111017193671       -2.1929840072516180       -5.5775618298317422                0           0           0
          52           1   1.2179240000000000       -1.3407342785516629       -1.3202666359979887       -4.7688837182395387                0           0           0
          53           1   1.0644769999999999      -0.21642047860987823       -1.6527713430546296       -5.2135636415310564                0           0           0
          54           1   1.3780330000000001       0.97015814302581216       -1.2736956003465991       -5.0255124410274172                0           0           0
          55           1   1.0451729999999999        2.1540821399386996       -1.4280042132201807       -4.8224927821531907                0           0           0
          56           1  0.79520100000000005        3.6391871736706403       -1.3712892009637798       -5.2536067838296976                0           0           0
          57           1   1.0204660000000001        4.4162511164474818       -1.5905448994334748       -4.6055486741409677                0           0           0
          58           1  0.80856499999999998        5.3269587972770758       -1.3843988140831112       -5.0144224161635575                0           0           0
          59           1   1.3538969999999999       -5.0625306415294418       -1.0791481688181683       -4.9890367092524670                0           0           0
          60           1  0.75854699999999997       -4.0655539396097220      -0.67972401552836992       -5.1849498430848744                0           0           0
          61           1  0.73175199999999996       -2.4356783971869720      -0.43113146991424767       -5.3665371899620284                0           0           0
          62           1   1.0328729999999999       -3.2276142777681920      -0.32144441368019194       -4.8589709498891880                0           0           0
          63           1  0.75083299999999997       -1.6078677773934977      -0.29664516629241700       -5.2680407130055453                0           0           0
          64           1  0.82179500000000005       -1.8888890576304145       -1.0769502822803796       -5.6594494988525881                0           0           0
          65           1  0.90665300000000004      -9.67847595709514508E-003 -0.65395863589152547       -4.8656730204886358                0           0           0
          66           1  0.88653700000000002      -0.93829161694095031      -0.30125656329964290       -4.6171432258313034                0           0           0
          67           1   1.1960150000000001       0.61274801980713445      -5.76471206787561030E-002  -5.5091022886169423                0           0           0
          68           1   1.0855290000000000        1.7608799800008077      -0.25678556287201548       -4.9774654692870612                0           0           0
          69           1  0.97821599999999997        2.8734570916370981      -0.73481462637334793       -5.2604199421525744                0           0           0
          70           1   1.4363210000000000        3.8755007249795348      -0.46521917216679665       -4.6871980125036208                0           0           0
          71           1   1.1656560000000000        5.2157541408152390      -0.36004287003156321       -4.9098105141972859                0           0           0
          72           1   1.0241950000000000       -5.1405931392362962       5.77303722651221207E-002  -5.4444866240138925                0           0           0
          73           1  0.83424600000000004       -4.6100170906835345       0.76598062932664224       -4.9654677893694554                0           0           0
          74           1   1.2242780000000000       -5.7189930206546773       0.90193532125990483       -4.8400125644078731                0           0           0
          75           1   1.2615920000000000       -3.9367469827261194       0.26403151984206996       -5.6887016498601817                0           0           0
          76           1  0.96946900000000003       -2.7377422001975700       0.42342809197048226       -5.5121995416215910                0           0           0
          77           1   1.0105480000000000       -3.3842516484596006       0.85875859225471185       -4.7501847607354524                0           0           0
          78           1   1.1696240000000000       -1.6405073840523565       0.71566790764141253       -5.3721439405146860                0           0           0
          79           1  0.91265600000000002       -2.3011832128030170        1.0215092859268964       -4.5781082372246908                0           0           0
          80           1  0.77751099999999995      -0.66760778830554202       0.45500200328769491       -5.3563652342540848                0           0           0
          81           1  0.88239800000000002       0.43131195559374902        1.0344166280518383       -5.3359035456097725                0           0           0
          82           1  0.79924200000000001        1.0753234334402428       0.44370396572624404       -4.6720643939153472                0           0           0
          83           1   1.1011640000000000        1.4521535838931934       0.81895791360302361       -5.6071113274661908                0           0           0
          84           1   1.4763390000000001        2.1755842600578372       0.88847243654358365       -4.5386749887833382                0           0           0
          85           1  0.85063500000000003        2.9551319521599062       0.18769369467826724       -4.8873991409164113                0           0           0
          86           1  0.83979999999999999        3.6390651804171945       0.21365999812818259       -5.5439533723480672                0           0           0
          87           1   1.1119710000000000        4.4771778373083695       0.66347955404317815       -5.0036435955018872                0           0           0
          88           1  0.92940100000000003       -5.4548621227932728        1.9598650269234126       -5.0989731860252094                0           0           0
          89           1  0.98624599999999996       -4.6156381110694227        2.3563327369678344       -5.6290084182078406                0           0           0
          90           1  0.88377099999999997       -3.8565074054208823        1.4242533642362156       -5.5091594482226975                0           0           0
          91           1   1.4289920000000000       -4.4194729975462526        1.7662477090572413       -4.5664772666862650                0           0           0
          92           1   1.2863240000000000       -2.6724526384840663        1.6158889957367837       -5.4862216328028648                0           0           0
          93           1  0.83280200000000004       -3.2651654442667226        1.8628964286919318       -4.5868561641728034                0           0           0
          94           1  0.91532000000000002       -1.5879810211026868        1.8495064923753279       -5.2043527160118481                0           0           0
          95           1   1.0549850000000001      -0.61743452604435678        1.4257512383962156       -5.3281332800382852                0           0           0
          96           1   1.4844250000000001       0.40679325902499119        2.1874113459789344       -5.4388538683788212                0           0           0
          97           1  0.86414400000000002        1.4765878068523524        1.8107831030219712       -5.3060211263100907                0           0           0
          98           1   1.3125690000000001        2.4425428105838023        2.2808553204229618       -5.1477529151286356                0           0           0
          99           1  0.82318199999999997        2.3788683766263929        1.2577379486783995       -5.6230183462728860                0           0           0
         100           1   1.2526790000000001        3.3994327817628793        1.2355994809334891       -5.3647284960080714                0           0           0
         101           1   1.3715560000000000        4.6944590677509730        1.9440713577307100       -5.2166250729454786                0           0           0
         102           1   1.1018300000000001       -5.2710387319682317        2.9231473594156334       -4.6589228411338182                0           0           0
         103           1   1.0932630000000001       -3.5684122314210067        2.4604668728250534       -5.3432680008595765                0           0           0
         104           1  0.91189900000000002       -4.1201910322895277        2.8844827038479384       -4.5124847937260375                0           0           0
         105           1  0.73728300000000002       -2.6135421633996185        2.6404834269883519       -5.2586717822075082                0           0           0
         106           1  0.79696199999999995       -3.3071291231231394        3.4015014950776408       -5.2518307741322277                0           0           0
         107           1   1.2884510000000000       -1.6770859761731796        2.9519810150806371       -4.9465795673014625                0           0           0
         108           1  0.90628100000000000      -0.72827710178698002        2.3943892099109707       -4.7442575661934629                0           0           0
         109           1   1.2439519999999999      -0.38527032841091557        3.3531466714441329       -5.2014501653620124                0           0           0
         110           1  0.85372000000000003      -0.78045501058786293        2.4245441958494443       -5.7209517685571347                0           0           0
         111           1  0.79320299999999999       0.61260387893006296        3.3021049678211227       -5.5995185718807061                0           0           0
         112           1  0.83657099999999995        1.1743204608879720        2.4684547747400565       -4.6492042646085689                0           0           0
         113           1  0.79898800000000003        2.9607282665104488        3.1894973350088875       -4.7862596901601080                0           0           0
         114           1  0.97961900000000002        3.5955398354611230        2.3818752090963784       -4.7901984000711648                0           0           0
         115           1  0.80490099999999998        4.3403980720788429        2.9619118643459785       -5.0319746002413428                0           0           0
         116           1  0.76785300000000001        5.2764564432937959        2.8444390329902305       -5.1960516573114885                0           0           0
         117           1  0.78729899999999997       -4.9527830454109223        4.4911065098261531       -5.4868162815460604                0           0           0
         118           1  0.86933700000000003       -5.5485395611450725        3.5914764247715105       -5.4411993250643418                0           0           0
         119           1   1.4795579999999999       -4.3736915948845532        3.5601701585098304       -5.4167183011311195                0           0           0
         120           1   1.1486650000000000       -3.1813724954521647        4.3791952732233366       -5.0841977703945380                0           0           0
         121           1  0.75789499999999999       -2.3893407835103835        3.7393702069283137       -4.9445169018942483                0           0           0
         122           1  0.80026200000000003       -2.3188743933477260        4.4422414737954892       -5.6161864023851855                0           0           0
         123           1  0.84546600000000005       -1.5241119385256150        3.9535757465516959       -5.5389894432978988                0           0           0
         124           1  0.74727200000000005       -1.2016804406258412        3.8547417451229773       -4.6781624295220983                0           0           0
         125           1   1.1842509999999999       -1.9060682881476056        4.5972214287610029       -4.6961626800999916                0           0           0
         126           1   1.0372950000000001      -0.65260059012662630        4.5092673322521097       -5.4106282147349898                0           0           0
         127           1  0.75573400000000002       0.26262206905489549        4.1566699065583954       -5.1434068994062159                0           0           0
         128           1  0.90554000000000001        1.2406210677543585        4.0856120459662204       -5.6165375375187363                0           0           0
         129           1  0.73019400000000001        1.8124752513160214        4.2102975155556823       -4.6998430647845426                0           0           0
         130           1   1.1501790000000001        2.1530857092759286        3.5470632271031679       -5.3305422776283065                0           0           0
         131           1   1.0361840000000000        3.0246472303041347        4.2518859549097332       -5.0759547294360239                0           0           0
         132           1  0.78415599999999996        3.9304510177925351        3.9095279430753624       -5.1480993949911342                0           0           0
         133           1  0.84128000000000003        4.6841101876015703        4.1828398185435329       -4.6291126097151105                0           0           0
         134           1   1.3047489999999999        4.8100880935359402        3.6876544431078973       -5.6341554084531866                0           0           0
         135           1  0.87163800000000002       -5.3628187985454048        5.3233532030577706       -5.1980949809130053                0           0           0
         136           1   1.1479109999999999       -4.3640938035020032        4.7493622539707250       -4.6945508630985548                0           0           0
         137           1  0.85967499999999997       -3.6091746669063762        5.3430702345830667       -5.1003046612056417                0           0           0
         138           1  0.80051799999999995       -4.4879522628169228        5.3872135049667236       -5.5112505077807974                0           0           0
         139           1   1.1004989999999999       -2.5906543673303175        5.4335220522383061       -5.4091937372339327                0           0           0
         140           1  0.95438500000000004       -1.5429188119492077        5.6900854824894438       -5.2028594548182028                0           0           0
         141           1  0.98720399999999997      -0.33671127534911438        5.6377694098977642       -5.5484747328466293                0           0           0
         142           1  0.86126300000000000       0.22702817812934839        5.0117630023691913       -4.8428556331015837                0           0           0
         143           1  0.79245800000000000        1.0931994273157359        4.6982778468287858       -4.7935119686459764                0           0           0
         144           1   1.2686580000000001        1.9923603118928295        4.9463160225219802       -5.3298554002630478                0           0           0
         145           1  0.86478800000000000        2.9172351023253960        5.2733149222640616       -4.8580242249406513                0           0           0
         146           1  0.73688299999999995        3.1245335065089765        5.0181023491478971       -5.7056406234651922                0           0           0
         147           1   1.4304490000000001        3.9906035829238427        4.9958516723949220       -4.9118439903811186                0           0           0
         148           1  0.76117100000000004        5.1018406881662681        5.0309133392321748       -5.0211025995028518                0           0           0
         149           1  0.81904200000000005        4.6137234842232910        4.8808315699208453        5.6754414012218692                0           0           0
         150           1  0.74355499999999997       -5.1743736458804861       -5.2350430092702283       -3.7926697521625705                0           0           0
         151           1  0.76271500000000003       -3.9008859999155359       -5.0071492373629685       -3.9585808288931421                0           0           0
         152           1  0.76898400000000000       -2.4789515108190066       -4.8053124374490910       -4.0454702718305828                0           0           0
         153           1   1.0236600000000000       -3.1861616129979593       -5.5547716879257356       -3.5186085765558364                0           0           0
         154           1  0.73077700000000001       -1.4871329964260687       -4.8835748939773458       -3.7835181045441466                0           0           0
         155           1   1.1202880000000000       -2.0132458933832944       -5.6756794774721913       -4.1923177677873449                0           0           0
         156           1  0.76807899999999996       -1.1703294215964801       -5.1767450947087266       -4.5016759498103900                0           0           0
         157           1   1.3321630000000000      -0.45124571203053421       -4.9766588382976886       -3.6592503493029374                0           0           0
         158           1  0.80179999999999996       0.65534844978315032       -4.9243170749198093       -3.9450019411134480                0           0           0
         159           1  0.94373200000000002        1.6163723573373421       -5.0627760195372655       -4.0204963547011987                0           0           0
         160           1  0.95481799999999994        3.1792085829629144       -4.6704119074824106       -4.5076624979967281                0           0           0
         161           1   1.4699640000000000        2.7744440224893197       -5.6369750903213349       -3.8573201183278676                0           0           0
         162           1   1.3309860000000000        4.2517767310075403       -5.0869772925754111       -4.0917632922886433                0           0           0
         163           1   1.1672389999999999        5.5672497771559879       -5.5074144416286623       -4.4613503371672110                0           0           0
         164           1  0.96901499999999996       -5.4432706507942044       -4.4021902827807269       -4.4224597396036938                0           0           0
         165           1   1.1382319999999999       -4.6478052876688505       -4.3885017751895905       -3.6088265814836498                0           0           0
         166           1   1.0295930000000000       -5.6940446091891284       -3.7192757363753199       -3.5807642369334323                0           0           0
         167           1  0.75638000000000005       -4.0978877837142154       -3.5554768844563438       -3.8319743482170772                0           0           0
         168           1   1.4976440000000000       -3.2621962440016392       -4.1990599566729037       -3.6188929192731329                0           0           0
         169           1   1.3677140000000001       -1.8417721375264891       -3.9740069605105162       -4.1961342950965133                0           0           0
         170           1  0.87362600000000001      -0.84049599728832458       -4.3029143404752208       -4.4500836393097920                0           0           0
         171           1  0.77448300000000003      -0.48892102558235973       -3.9107608450273448       -3.6617384622829259                0           0           0
         172           1   1.1426689999999999       0.17824988712363954       -4.1525616280975850       -4.4537739017281250                0           0           0
         173           1   1.6053649999999999        1.3743071892768759       -3.8515091755703770       -3.7841280980673520                0           0           0
         174           1  0.81254700000000002        2.3864573153484709       -4.4113659538648662       -4.0161660596417761                0           0           0
         175           1   1.5251770000000000        2.8590409837959978       -3.4469634390336701       -4.4850528893569832                0           0           0
         176           1  0.90739599999999998        3.9003750382087095       -3.9272777051242969       -4.1826751273645897                0           0           0
         177           1  0.91723800000000000        3.4721198573164020       -3.2953769185722526       -3.4582390774068292                0           0           0
         178           1  0.98055700000000001        4.9367183074941643       -4.1302738675283894       -4.2328054451441339                0           0           0
         179           1   1.4378010000000001       -4.9254669120792620       -3.2646208490384168       -4.4147258763582125                0           0           0