LAMMPS data file via write_data, version 17 Nov 2016, timestep = 0
      
  1500 atoms
      
1 atom types
  -5.7235712129999996        5.7235712129999996      xlo xhi
  -5.7235712129999996        5.7235712129999996      ylo yhi
  -5.7235712129999996        5.7235712129999996      zlo zhi
Masses
      
1 1
      
Pair Coeffs # lj/poly
      
                               1 1.0 1.0 2.025 1.25 0.2
      
Atoms # charge
      
           1           1  0.82965299999999997       -5.5523874272460434       -4.8780833468839715       -5.2657196160230377                0           0           0
           2           1   1.5413479999999999       -4.5879653058964296       -5.2696444736683361       -4.7551814338505309                0           0           0
           3           1  0.86062700000000003       -3.8168092265272904       -4.7612423296942694       -5.4937429417688879                0           0           0
           4           1   1.2325940000000000       -3.1907186985159135       -5.2214405136285675       -4.6662474086194159                0           0           0
           5           1  0.92110899999999996       -2.0951920777684054       -4.8958919103269203       -4.8994481516826731                0           0           0
           6           1   1.5043869999999999       -1.0429009437428967       -4.7226561817782180       -5.4622379430774242                0           0           0
           7           1  0.88103100000000001      -0.19918708332230395       -5.1616071846126568       -4.7440643381278536                0           0           0
           8           1  0.92227999999999999       0.29876537046699170       -4.6647581406329515       -5.4695721854192652                0           0           0
           9           1   1.5129459999999999       0.93808254098548183       -5.5234268370888930       -4.9829477426653401                0           0           0
          10           1  0.87097899999999995        2.1159308543198136       -5.5802866591081202       -4.7751069152122820                0           0           0
          11           1  0.82823300000000000        1.9347760141883201       -5.3948052145622123       -5.6989561152826527                0           0           0
          12           1   1.3333429999999999        3.0285925685367197       -5.3272725021983351       -5.5332199594115350                0           0           0
          13           1  0.81986499999999995        4.1203871059528741       -5.3060206266181682       -5.3246263798644984                0           0           0
          14           1  0.74748000000000003        3.5248829184974930       -5.5418583519487878       -4.6473886575227725                0           0           0
          15           1  0.86770400000000003        4.9112172526653755       -4.8160915926263526       -4.9844332814542929                0           0           0
          16           1  0.73948999999999998        4.6868470760315972       -5.6951268717015164       -4.8001708111630244                0           0           0
          17           1   1.1174949999999999       -4.8113323281042319       -4.1472104481652607       -5.5269872950072996                0           0           0
          18           1   1.0167780000000000       -4.0291587798440354       -4.1300052113274086       -4.6467113764125889                0           0           0
          19           1   1.0699300000000000       -2.8738977775797765       -4.0573358273215305       -4.8532308186985125                0           0           0
          20           1  0.76943799999999996       -1.9757904527879080       -4.0810459186702142       -5.2993955299585336                0           0           0
          21           1   1.0829869999999999      -0.23637866193528279       -3.7581767601146097       -5.6609844484050100                0           0           0
          22           1   1.3859269999999999       0.98287648064213684       -3.6823293450123349       -5.3601487209223091                0           0           0
          23           1  0.77240699999999995        1.0853675461049415       -4.5016909148217783       -4.6540716932552222                0           0           0
          24           1   1.1917739999999999        2.0247923811926567       -4.5398440775673228       -5.0001179029054814                0           0           0
          25           1  0.76583000000000001        1.8149143023793934       -3.5371828003736669       -4.7329815296587761                0           0           0
          26           1  0.97774899999999998        2.1659084668254174       -3.5633296927794653       -5.6199797483789080                0           0           0
          27           1  0.83108000000000004        2.9271049567841150       -4.2002979498809792       -5.3781889604494824                0           0           0
          28           1   1.2215430000000000        3.9772321458219064       -4.2744431660133513       -5.2401013991322873                0           0           0
          29           1   1.3806490000000000        5.3886656751899249       -3.8317016367283108       -5.3285218301752479                0           0           0
          30           1   1.0400879999999999       -5.1879753660102308       -2.9542521278964564       -5.6226998956098742                0           0           0
          31           1  0.77126099999999997       -4.3011268155170708       -3.2816085234068622       -5.2680164279520243                0           0           0
          32           1  0.92384800000000000       -4.3005382087819015       -2.3794218811968939       -4.9365221770493397                0           0           0
          33           1  0.88862900000000000       -2.3264736593666004       -3.1362852671348596       -4.8726319835268024                0           0           0
          34           1  0.86158199999999996       -3.0726041846197547       -2.8353331675339271       -5.5386249819394884                0           0           0
          35           1   1.1209890000000000       -1.3096434922713751       -3.3588996303113863       -5.2626589194416393                0           0           0
          36           1   1.2420370000000001      -0.20181701492264015       -2.9258300651176126       -4.7192499409768454                0           0           0
          37           1  0.88274100000000000       -1.0397657973901477       -2.3304403637710429       -5.1663007904507081                0           0           0
          38           1   1.0668899999999999       0.70660722761226236       -2.4470310148806882       -5.4124652782748308                0           0           0
          39           1   1.1892499999999999        1.8818077496394734       -2.5773151853214222       -5.0884457983459432                0           0           0
          40           1  0.78319600000000000        2.8369193399435542       -2.8146922179376608       -5.3706330383926701                0           0           0
          41           1  0.77194799999999997        2.7319799925082542       -2.3005676953199532       -4.5320621050289205                0           0           0
          42           1  0.74873199999999995        3.6647699301201744       -3.3017063800120661       -5.1958691640781778                0           0           0
          43           1   1.0263439999999999        4.5032904680523327       -3.2474319139054590       -4.7639685517192394                0           0           0
          44           1  0.81308199999999997        4.5409860795346688       -2.5163877223704905       -5.4306268773066204                0           0           0
          45           1   1.1161060000000000        3.6580008883193447       -2.3532418214106410       -4.9594049642903588                0           0           0
          46           1   1.2125560000000000        5.4145982248884970       -2.4158662074533139       -4.8914043648604322                0           0           0
          47           1  0.74192100000000005       -5.0801197908720237       -2.0693513231035663       -5.2754247930918048                0           0           0
          48           1  0.91800800000000005       -4.1367750552070985       -1.5483441810533654       -5.5014841229309788                0           0           0
          49           1  0.83222700000000005       -3.2247826386878509       -1.9478527001168113       -5.2741457581778866                0           0           0
          50           1   1.0095200000000000       -2.5260066134782941       -1.2222998012162956       -4.8871888325561432                0           0           0
          51           1   1.4893410000000000       -2.1329732639852401       -2.1933591339767879       -5.5786793407360564                0           0           0
          52           1   1.2179240000000000       -1.3393277832268069       -1.3227267233379179       -4.7687799270143518                0           0           0
          53           1   1.0644769999999999      -0.21536316282866341       -1.6537290541930467       -5.2147164812731059                0           0           0
          54           1   1.3780330000000001       0.97249956049082797       -1.2732987356149410       -5.0264530605353048                0           0           0
          55           1   1.0451729999999999        2.1563410122571156       -1.4290457578265521       -4.8210551968726243                0           0           0
          56           1  0.79520100000000005        3.6439834989443494       -1.3662039985011170       -5.2498058428630285                0           0           0
          57           1   1.0204660000000001        4.4588496217226350       -1.5615728393531443       -4.6096566236099576                0           0           0
          58           1  0.80856499999999998        5.3548591564185593       -1.3708182326955987       -5.0326002360286619                0           0           0
          59           1   1.3538969999999999       -5.0448665095339962       -1.0707043974959234       -4.9832179885008365                0           0           0
          60           1  0.75854699999999997       -4.0567820346295811      -0.67484169723439713       -5.1853022940425033                0           0           0
          61           1  0.73175199999999996       -2.4318204386040354      -0.42975758449500567       -5.3674333648038148                0           0           0
          62           1   1.0328729999999999       -3.2218937078313319      -0.31921727878123818       -4.8585935461990175                0           0           0
          63           1  0.75083299999999997       -1.6047064056326681      -0.29454796127998684       -5.2694051023930850                0           0           0
          64           1  0.82179500000000005       -1.8852756184122383       -1.0761581722230922       -5.6605671260012063                0           0           0
          65           1  0.90665300000000004      -7.82981838344110059E-003 -0.65479330847246509       -4.8665751585740322                0           0           0
          66           1  0.88653700000000002      -0.93592098448501293      -0.30282266026026505       -4.6175475428880128                0           0           0
          67           1   1.1960150000000001       0.61485566930178770      -5.77645831807060972E-002  -5.5087102109137716                0           0           0
          68           1   1.0855290000000000        1.7634229386334095      -0.25703349578847146       -4.9775635414954014                0           0           0
          69           1  0.97821599999999997        2.8753782297325685      -0.73551119626156325       -5.2580738580774726                0           0           0
          70           1   1.4363210000000000        3.8761396441700633      -0.46327926826263965       -4.6844185679695638                0           0           0
          71           1   1.1656560000000000        5.2197559002128493      -0.35630181650411341       -4.9022406071568145                0           0           0
          72           1   1.0241950000000000       -5.1427707452984270       5.83746794726645035E-002  -5.4462655014659243                0           0           0
          73           1  0.83424600000000004       -4.6110858097014846       0.76562222418969395       -4.9656214847250819                0           0           0
          74           1   1.2242780000000000       -5.7178561467051061       0.90232572465473382       -4.8381414005347718                0           0           0
          75           1   1.2615920000000000       -3.9356248124533328       0.26551690537751771       -5.6883493057545644                0           0           0
          76           1  0.96946900000000003       -2.7361751645399237       0.42451447359330441       -5.5134531157095443                0           0           0
          77           1   1.0105480000000000       -3.3827656357047968       0.86010045593986284       -4.7510063031556573                0           0           0
          78           1   1.1696240000000000       -1.6396094982535168       0.71729071045771331       -5.3737451311051663                0           0           0
          79           1  0.91265600000000002       -2.2999653264602951        1.0215473641667518       -4.5789856760101806                0           0           0
          80           1  0.77751099999999995      -0.66772537007576371       0.45421287325862814       -5.3570329866978774                0           0           0
          81           1  0.88239800000000002       0.43353765164481839        1.0353202003433282       -5.3361328707535582                0           0           0
          82           1  0.79924200000000001        1.0776718576249174       0.44390902342652172       -4.6720889470330000                0           0           0
          83           1   1.1011640000000000        1.4545399211882604       0.81819834737574659       -5.6065768501274160                0           0           0
          84           1   1.4763390000000001        2.1773104962533552       0.88812182062985290       -4.5380214055333665                0           0           0
          85           1  0.85063500000000003        2.9577067696145871       0.18868578061253594       -4.8880542962042171                0           0           0
          86           1  0.83979999999999999        3.6447441347418881       0.20990169815206539       -5.5436000385164546                0           0           0
          87           1   1.1119710000000000        4.4789812352922631       0.66406454711681651       -5.0019763991821673                0           0           0
          88           1  0.92940100000000003       -5.4564463681483568        1.9590390471409131       -5.1011502063124112                0           0           0
          89           1  0.98624599999999996       -4.6161815137262501        2.3564990576398870       -5.6293142844395829                0           0           0
          90           1  0.88377099999999997       -3.8568647458431142        1.4238831069207709       -5.5098512168706835                0           0           0
          91           1   1.4289920000000000       -4.4193067920534395        1.7667085708886940       -4.5671177447978000                0           0           0
          92           1   1.2863240000000000       -2.6712688423025188        1.6169235093370427       -5.4872193978229085                0           0           0
          93           1  0.83280200000000004       -3.2635822057275754        1.8633674563203391       -4.5869718985660208                0           0           0
          94           1  0.91532000000000002       -1.5867178914919942        1.8513181841875062       -5.2058933628172621                0           0           0
          95           1   1.0549850000000001      -0.61707777937248398        1.4256745829599939       -5.3291211707752018                0           0           0
          96           1   1.4844250000000001       0.40563339925698649        2.1889472489286899       -5.4365516368343378                0           0           0
          97           1  0.86414400000000002        1.4754651649034578        1.8112008187286373       -5.3067955698358071                0           0           0
          98           1   1.3125690000000001        2.4422613352705174        2.2801002781315187       -5.1472516854694108                0           0           0
          99           1  0.82318199999999997        2.3808948472848765        1.2557704375999554       -5.6230675466836217                0           0           0
         100           1   1.2526790000000001        3.4009586716534059        1.2321754494873121       -5.3639230572585568                0           0           0
         101           1   1.3715560000000000        4.6942585433013555        1.9443049075313121       -5.2167277381699790                0           0           0
         102           1   1.1018300000000001       -5.2706805708256752        2.9216670401802336       -4.6592655920918542                0           0           0
         103           1   1.0932630000000001       -3.5686473788374826        2.4595259390997679       -5.3436825063387419                0           0           0
         104           1  0.91189900000000002       -4.1192756142037963        2.8850032181145693       -4.5127792876870494                0           0           0
         105           1  0.73728300000000002       -2.6130942560497461        2.6409771332291658       -5.2597504777785282                0           0           0
         106           1  0.79696199999999995       -3.3093853931329886        3.4003783363983260       -5.2523697887409782                0           0           0
         107           1   1.2884510000000000       -1.6761862189089678        2.9531133666656952       -4.9468302685244092                0           0           0
         108           1  0.90628100000000000      -0.72715457811400253        2.3966672740452459       -4.7445534644271818                0           0           0
         109           1   1.2439519999999999      -0.38469563270653850        3.3587227173307319       -5.1982323151172993                0           0           0
         110           1  0.85372000000000003      -0.78173965140475588        2.4265786163664593       -5.7201657467539144                0           0           0
         111           1  0.79320299999999999       0.61272679921118911        3.3019740510089193       -5.5992387117049454                0           0           0
         112           1  0.83657099999999995        1.1740568476388971        2.4687095104755965       -4.6477700453534254                0           0           0
         113           1  0.79898800000000003        2.9604406361708158        3.1896606605554982       -4.7872629827904936                0           0           0
         114           1  0.97961900000000002        3.5952991814397208        2.3821047707206766       -4.7895115546786213                0           0           0
         115           1  0.80490099999999998        4.3400916174678716        2.9623976845101492       -5.0324470821878196                0           0           0
         116           1  0.76785300000000001        5.2770292258223872        2.8442645992686995       -5.1962604528683869                0           0           0
         117           1  0.78729899999999997       -4.9543189288020155        4.4928479345602881       -5.4874457198894433                0           0           0
         118           1  0.86933700000000003       -5.5490855429613770        3.5897032534843980       -5.4417970877421382                0           0           0
         119           1   1.4795579999999999       -4.3749964523207856        3.5606009214438856       -5.4168318022171720                0           0           0
         120           1   1.1486650000000000       -3.1815304961738131        4.3772173045784868       -5.0850452703637954                0           0           0
         121           1  0.75789499999999999       -2.3869029924224314        3.7413689517080790       -4.9425854645741829                0           0           0
         122           1  0.80026200000000003       -2.3180866570352530        4.4462853477930775       -5.6159254359028230                0           0           0
         123           1  0.84546600000000005       -1.5241548088398638        3.9568092744577790       -5.5390390300941617                0           0           0
         124           1  0.74727200000000005       -1.2036916430874260        3.8569370644583287       -4.6785122620784598                0           0           0
         125           1   1.1842509999999999       -1.9061029448612610        4.6005988815017620       -4.6942170558571865                0           0           0
         126           1   1.0372950000000001      -0.65555257330570349        4.5164111802528346       -5.4059300129891721                0           0           0
         127           1  0.75573400000000002       0.26215585739875547        4.1609465165695116       -5.1399159766909008                0           0           0
         128           1  0.90554000000000001        1.2385647221345586        4.0860887306870417       -5.6179571111822710                0           0           0
         129           1  0.73019400000000001        1.8099740942017606        4.2139954114163416       -4.6969023419403282                0           0           0
         130           1   1.1501790000000001        2.1513422305910792        3.5479863088721810       -5.3300031792915430                0           0           0
         131           1   1.0361840000000000        3.0260985438823322        4.2487936556975079       -5.0797559961063650                0           0           0
         132           1  0.78415599999999996        3.9310160917652652        3.9057558999519966       -5.1498815475944326                0           0           0
         133           1  0.84128000000000003        4.6839851011011966        4.1796075486731290       -4.6304552021849101                0           0           0
         134           1   1.3047489999999999        4.8103964222176359        3.6867091127239071       -5.6363097567788776                0           0           0
         135           1  0.87163800000000002       -5.3688179373377816        5.3260615720707847       -5.1923655366543224                0           0           0
         136           1   1.1479109999999999       -4.3673429091015201        4.7488665239369006       -4.6952788868171256                0           0           0
         137           1  0.85967499999999997       -3.6117246156135243        5.3394025021535381       -5.1025973358471006                0           0           0
         138           1  0.80051799999999995       -4.4933766069547207        5.3878030961460173       -5.5092310360963737                0           0           0
         139           1   1.1004989999999999       -2.5963101328529961        5.4353382532987879       -5.4084157705250604                0           0           0
         140           1  0.95438500000000004       -1.5532395222158257        5.6937249629663285       -5.1993372573413446                0           0           0
         141           1  0.98720399999999997      -0.34794404162141834        5.6404230135670890       -5.5595890580055620                0           0           0
         142           1  0.86126300000000000       0.21865939560326009        5.0159766477034662       -4.8438515762869212                0           0           0
         143           1  0.79245800000000000        1.0870736835748538        4.6995057761852426       -4.8041544724960259                0           0           0
         144           1   1.2686580000000001        1.9932843390219963        4.9427967891274935       -5.3329024701382961                0           0           0
         145           1  0.86478800000000000        2.9196063446103064        5.2685022067025749       -4.8634215621270735                0           0           0
         146           1  0.73688299999999995        3.1234832443445910        5.0158211527081740       -5.7121920835666655                0           0           0
         147           1   1.4304490000000001        3.9923424330250139        4.9924028568734027       -4.9141054052415001                0           0           0
         148           1  0.76117100000000004        5.1015630101550453        5.0312191983659922       -5.0219946135350417                0           0           0
         149           1  0.81904200000000005        4.6136370068926951        4.8792770393056006        5.6730269856378026                0           0           0
         150           1  0.74355499999999997       -5.1815516933562389       -5.2279025752367509       -3.7843441729569296                0           0           0
         151           1  0.76271500000000003       -3.9050141981124029       -5.0059360472792900       -3.9557367328376953                0           0           0
         152           1  0.76898400000000000       -2.4936383905091914       -4.8055155232066609       -4.0483310144368811                0           0           0
         153           1   1.0236600000000000       -3.1910146208151411       -5.5623745622273901       -3.5253378129364283                0           0           0
         154           1  0.73077700000000001       -1.4157724074987854       -5.0714842186783899       -3.6714165525524174                0           0           0
         155           1   1.1202880000000000       -2.0387034666025121       -5.6799402867732205       -4.1911166812640319                0           0           0
         156           1  0.76807899999999996       -1.2239519565058723       -5.1524531551812887       -4.4885720437949761                0           0           0
         157           1   1.3321630000000000      -0.40919740535614135       -4.9719166626130997       -3.6591196911309023                0           0           0
         158           1  0.80179999999999996       0.66537053515905953       -4.9137726974736777       -3.9422173027171752                0           0           0
         159           1  0.94373200000000002        1.6188165923040740       -5.0665381012988000       -4.0330456840768072                0           0           0
         160           1  0.95481799999999994        3.1735103082036247       -4.6778915215556953       -4.5103501791696923                0           0           0
         161           1   1.4699640000000000        2.7739408164857231       -5.6451595940745900       -3.8619725361403283                0           0           0
         162           1   1.3309860000000000        4.2476132514844025       -5.0917089148809849       -4.0900367669406190                0           0           0
         163           1   1.1672389999999999        5.5610968888983141       -5.4967791160988568       -4.4555808487179345                0           0           0
         164           1  0.96901499999999996       -5.4397314335834093       -4.3958030218929318       -4.4231766809216619                0           0           0
         165           1   1.1382319999999999       -4.6491271402614123       -4.3843049150587490       -3.6071455014194336                0           0           0
         166           1   1.0295930000000000       -5.6943467369187033       -3.7176942674212712       -3.5816044121504382                0           0           0
         167           1  0.75638000000000005       -4.1067388601005721       -3.5476822666652037       -3.8352789692052647                0           0           0
         168           1   1.4976440000000000       -3.2690260885474594       -4.1932936318514145       -3.6180466825636071                0           0           0
         169           1   1.3677140000000001       -1.8396490347197307       -3.9907028970156340       -4.2000563790219161                0           0           0
         170           1  0.87362600000000001      -0.83212983696526077       -4.3109965425075423       -4.4405657324253278                0           0           0
         171           1  0.77448300000000003      -0.48186137859534028       -3.9092500218656161       -3.6624420452239836                0           0           0
         172           1   1.1426689999999999       0.18310572520397095       -4.1443586189053629       -4.4626786475615088                0           0           0
         173           1   1.6053649999999999        1.3744915427424527       -3.8516797588235887       -3.7899315855433375                0           0           0
         174           1  0.81254700000000002        2.3838567267344022       -4.4098422426984953       -4.0227665484217949                0           0           0
         175           1   1.5251770000000000        2.8665657834491700       -3.4527561199429515       -4.4890319329421402                0           0           0
         176           1  0.90739599999999998        3.8974392275898122       -3.9444213392085681       -4.1704361084442914                0           0           0
         177           1  0.91723800000000000        3.4657980873328107       -3.3071417603796198       -3.4532841184171201                0           0           0
         178           1  0.98055700000000001        4.9388803927445206       -4.1430818639931992       -4.2271496423205130                0           0           0
         179           1   1.4378010000000001       -4.9402230451004048       -3.2477911895667306       -4.4115762922459325                0           0           0