LAMMPS data file via write_data, version 17 Nov 2016, timestep = 0
      
  1500 atoms
      
1 atom types
  -5.7235712129999996        5.7235712129999996      xlo xhi
  -5.7235712129999996        5.7235712129999996      ylo yhi
  -5.7235712129999996        5.7235712129999996      zlo zhi
Masses
      
1 1
      
Pair Coeffs # lj/poly
      
                               1 1.0 1.0 2.025 1.25 0.2
      
Atoms # charge
      
           1           1  0.82965299999999997       -5.5479906857328540       -4.8792019900933408       -5.2650012792355358                0           0           0
           2           1   1.5413479999999999       -4.5818940581861085       -5.2684708111942742       -4.7570020241997746                0           0           0
           3           1  0.86062700000000003       -3.8051970105212827       -4.7645675875757618       -5.4930973993483372                0           0           0
           4           1   1.2325940000000000       -3.1782793396030136       -5.2248149779687276       -4.6626482466034060                0           0           0
           5           1  0.92110899999999996       -2.0818705348043411       -4.8860202330449800       -4.8942655575878327                0           0           0
           6           1   1.5043869999999999       -1.0388792531238140       -4.7199545525507469       -5.4699908540133322                0           0           0
           7           1  0.88103100000000001      -0.20808355921181931       -5.1691045331843872       -4.7434269146768866                0           0           0
           8           1  0.92227999999999999       0.29095798687300434       -4.6654949202934226       -5.4672417239950448                0           0           0
           9           1   1.5129459999999999       0.93317296544450823       -5.5187195961255080       -4.9743539475459064                0           0           0
          10           1  0.87097899999999995        2.1159686944677025       -5.5718920791320636       -4.7673888546514052                0           0           0
          11           1  0.82823300000000000        1.9393828136545510       -5.3898170498108877       -5.6921988746747871                0           0           0
          12           1   1.3333429999999999        3.0377296766203781       -5.3161164191067432       -5.5229191903594650                0           0           0
          13           1  0.81986499999999995        4.1272992550105947       -5.3007155276215681       -5.3193514571738945                0           0           0
          14           1  0.74748000000000003        3.5268509156295735       -5.5407910907032116       -4.6387461611458241                0           0           0
          15           1  0.86770400000000003        4.9210446138957131       -4.8165704022834417       -4.9782474739793381                0           0           0
          16           1  0.73948999999999998        4.6897097201049807       -5.6952622502577732       -4.7958939482325738                0           0           0
          17           1   1.1174949999999999       -4.8084818907310076       -4.1495487871259957       -5.5314159069016471                0           0           0
          18           1   1.0167780000000000       -4.0231316499468139       -4.1319249397097053       -4.6503880524994869                0           0           0
          19           1   1.0699300000000000       -2.8700120881906570       -4.0589922050365370       -4.8566318757567624                0           0           0
          20           1  0.76943799999999996       -1.9710730254892099       -4.0770878494064799       -5.3021231059970431                0           0           0
          21           1   1.0829869999999999      -0.23600302087329528       -3.7542510893712802       -5.6622749820682401                0           0           0
          22           1   1.3859269999999999       0.98047095767619385       -3.6858311780696784       -5.3586620600882515                0           0           0
          23           1  0.77240699999999995        1.0825593519991115       -4.4978364493352583       -4.6501803953728791                0           0           0
          24           1   1.1917739999999999        2.0238045936608762       -4.5355602834042550       -4.9988646668718735                0           0           0
          25           1  0.76583000000000001        1.8115254769616564       -3.5349338224251396       -4.7331890533835130                0           0           0
          26           1  0.97774899999999998        2.1672778264572701       -3.5641132179751667       -5.6199307830754197                0           0           0
          27           1  0.83108000000000004        2.9335574975423331       -4.1987364576010657       -5.3731975914253027                0           0           0
          28           1   1.2215430000000000        3.9893511573940703       -4.2695067984999548       -5.2296985480500080                0           0           0
          29           1   1.3806490000000000        5.3877008092940724       -3.8283972517237856       -5.3261534768464118                0           0           0
          30           1   1.0400879999999999       -5.1699930978003916       -2.9697681642176272       -5.6296360239398382                0           0           0
          31           1  0.77126099999999997       -4.2898215403574333       -3.2880752705725134       -5.2661657968433246                0           0           0
          32           1  0.92384800000000000       -4.2976944925665412       -2.3860424314482382       -4.9386501711016821                0           0           0
          33           1  0.88862900000000000       -2.3277629431275679       -3.1319749600203295       -4.8734415409563683                0           0           0
          34           1  0.86158199999999996       -3.0708855721611075       -2.8367097840356719       -5.5424306998913488                0           0           0
          35           1   1.1209890000000000       -1.3086514713911868       -3.3543827642881237       -5.2630892967535043                0           0           0
          36           1   1.2420370000000001      -0.20147022793067304       -2.9240274157715600       -4.7208655453290742                0           0           0
          37           1  0.88274100000000000       -1.0393441018066580       -2.3272094723735370       -5.1682018221249546                0           0           0
          38           1   1.0668899999999999       0.70395056864857519       -2.4488957842114596       -5.4178234672169960                0           0           0
          39           1   1.1892499999999999        1.8744591799953554       -2.5766440765971614       -5.0892978175314392                0           0           0
          40           1  0.78319600000000000        2.8211946630837925       -2.8173053671240509       -5.3742633119159526                0           0           0
          41           1  0.77194799999999997        2.7222722583695287       -2.2988374957289213       -4.5327784931437112                0           0           0
          42           1  0.74873199999999995        3.6761293948237963       -3.3129905060078673       -5.1787389689399710                0           0           0
          43           1   1.0263439999999999        4.5190297065557541       -3.2076891910697105       -4.7471550503033226                0           0           0
          44           1  0.81308199999999997        4.5542314647814361       -2.4892354772686724       -5.4164721604933428                0           0           0
          45           1   1.1161060000000000        3.6422856713462100       -2.3670880657094928       -4.9658019472705481                0           0           0
          46           1   1.2125560000000000        5.4669128660493520       -2.4234465967297885       -4.9150845771962572                0           0           0
          47           1  0.74192100000000005       -5.0444811679892467       -2.0635753461087192       -5.3319109854177791                0           0           0
          48           1  0.91800800000000005       -4.1429233350109547       -1.5507868741124282       -5.5027640991965372                0           0           0
          49           1  0.83222700000000005       -3.2282426620784248       -1.9502770425501663       -5.2762589496884420                0           0           0
          50           1   1.0095200000000000       -2.5293665613615857       -1.2217330402271713       -4.8879920950935611                0           0           0
          51           1   1.4893410000000000       -2.1333314602115308       -2.1924583541239699       -5.5797842020623278                0           0           0
          52           1   1.2179240000000000       -1.3401875760357758       -1.3189486006149016       -4.7717161084633393                0           0           0
          53           1   1.0644769999999999      -0.21595215915164623       -1.6531926668550074       -5.2178054690628084                0           0           0
          54           1   1.3780330000000001       0.97139655822398385       -1.2746769873238062       -5.0292449941777972                0           0           0
          55           1   1.0451729999999999        2.1547909748083347       -1.4307794122604500       -4.8205772242965583                0           0           0
          56           1  0.79520100000000005        3.6395154335053732       -1.3754922680368535       -5.2465111599508303                0           0           0
          57           1   1.0204660000000001        4.4291166065780008       -1.5944795970240211       -4.5987031357505286                0           0           0
          58           1  0.80856499999999998        5.3324202619807579       -1.3801296820145748       -5.0158255892451713                0           0           0
          59           1   1.3538969999999999       -5.0587655893606733       -1.0784580162146282       -4.9877885477836390                0           0           0
          60           1  0.75854699999999997       -4.0639706622525731      -0.67798042044106044       -5.1858472721688935                0           0           0
          61           1  0.73175199999999996       -2.4349910323190129      -0.42970466175623212       -5.3687820960671031                0           0           0
          62           1   1.0328729999999999       -3.2266724888881892      -0.31971410791180421       -4.8614150106493508                0           0           0
          63           1  0.75083299999999997       -1.6070268871223883      -0.29521271339671262       -5.2707680279580345                0           0           0
          64           1  0.82179500000000005       -1.8887254844423209       -1.0762105477887971       -5.6618268910419935                0           0           0
          65           1  0.90665300000000004      -9.31523092051111945E-003 -0.65554485158289033       -4.8681346657712519                0           0           0
          66           1  0.88653700000000002      -0.93747816542858242      -0.30147228667725745       -4.6191996528706110                0           0           0
          67           1   1.1960150000000001       0.61275408562188005      -5.83275671575114174E-002  -5.5103364742787440                0           0           0
          68           1   1.0855290000000000        1.7611783940006331      -0.25828270850617763       -4.9766779979688085                0           0           0
          69           1  0.97821599999999997        2.8743434530219627      -0.73797909106359683       -5.2582008849998267                0           0           0
          70           1   1.4363210000000000        3.8764631604128201      -0.46927606203567152       -4.6856483343194535                0           0           0
          71           1   1.1656560000000000        5.2163700492996536      -0.35845215624109894       -4.9079662468038734                0           0           0
          72           1   1.0241950000000000       -5.1401691517711150       5.80054978656248110E-002  -5.4443331420827841                0           0           0
          73           1  0.83424600000000004       -4.6099402966420051       0.76698862003701596       -4.9662864741666617                0           0           0
          74           1   1.2242780000000000       -5.7188998808707989       0.90275618214086517       -4.8405576145443074                0           0           0
          75           1   1.2615920000000000       -3.9363112910664428       0.26548671394456669       -5.6895955489186569                0           0           0
          76           1  0.96946900000000003       -2.7362099845023815       0.42573735623922015       -5.5135471727399663                0           0           0
          77           1   1.0105480000000000       -3.3825924574512243       0.86083394020166537       -4.7518544817087696                0           0           0
          78           1   1.1696240000000000       -1.6390895598502757       0.71740881055246053       -5.3755542493219481                0           0           0
          79           1  0.91265600000000002       -2.2999097341142853        1.0235001515816178       -4.5818251506550016                0           0           0
          80           1  0.77751099999999995      -0.66663848208125920       0.45478183661100680       -5.3569735998697414                0           0           0
          81           1  0.88239800000000002       0.43157641953694892        1.0320631731401884       -5.3364827843676572                0           0           0
          82           1  0.79924200000000001        1.0761733988058104       0.44177670875053288       -4.6737249577712170                0           0           0
          83           1   1.1011640000000000        1.4524611452087459       0.81774924607174615       -5.6074866775066923                0           0           0
          84           1   1.4763390000000001        2.1774001739862427       0.88676956978028887       -4.5391391482691832                0           0           0
          85           1  0.85063500000000003        2.9559942082072315       0.18435465990074729       -4.8859317674674596                0           0           0
          86           1  0.83979999999999999        3.6392198297220304       0.21078232361815719       -5.5423435882940515                0           0           0
          87           1   1.1119710000000000        4.4767464230170866       0.66264934778500795       -5.0034311806527505                0           0           0
          88           1  0.92940100000000003       -5.4547844797819680        1.9605281150448572       -5.1004258960965636                0           0           0
          89           1  0.98624599999999996       -4.6153591288203195        2.3581325182942869       -5.6295392380815077                0           0           0
          90           1  0.88377099999999997       -3.8556198349040653        1.4251681368852873       -5.5105400048874351                0           0           0
          91           1   1.4289920000000000       -4.4186864757381885        1.7673950370348885       -4.5681621224149298                0           0           0
          92           1   1.2863240000000000       -2.6686672447322590        1.6199311602300712       -5.4910729489877088                0           0           0
          93           1  0.83280200000000004       -3.2633338146055948        1.8644316949008788       -4.5899805643975435                0           0           0
          94           1  0.91532000000000002       -1.5862569656960970        1.8533862061972926       -5.2081617112180618                0           0           0
          95           1   1.0549850000000001      -0.61845991059441374        1.4257278894739658       -5.3303247176798294                0           0           0
          96           1   1.4844250000000001       0.40591413438148649        2.1839234705019495       -5.4329818815566897                0           0           0
          97           1  0.86414400000000002        1.4771120703682659        1.8079019028740548       -5.3068575913106191                0           0           0
          98           1   1.3125690000000001        2.4428017356038971        2.2776333193863412       -5.1464251908130043                0           0           0
          99           1  0.82318199999999997        2.3787720716229241        1.2568471023131540       -5.6272823717519875                0           0           0
         100           1   1.2526790000000001        3.3988543649283134        1.2331527062314791       -5.3646770825206183                0           0           0
         101           1   1.3715560000000000        4.6939826394109385        1.9452890367046969       -5.2172456325074261                0           0           0
         102           1   1.1018300000000001       -5.2702861017674749        2.9242706823599249       -4.6608972122515260                0           0           0
         103           1   1.0932630000000001       -3.5669505783901339        2.4612676824017701       -5.3459501050411049                0           0           0
         104           1  0.91189900000000002       -4.1187041368230934        2.8859595423260451       -4.5152449023947048                0           0           0
         105           1  0.73728300000000002       -2.6104435268321811        2.6426371433250502       -5.2625106166030262                0           0           0
         106           1  0.79696199999999995       -3.3083229431642032        3.4024387019232414       -5.2540618677171320                0           0           0
         107           1   1.2884510000000000       -1.6742469220743850        2.9549087620379382       -4.9501127562848373                0           0           0
         108           1  0.90628100000000000      -0.72737059436265739        2.3940814423148584       -4.7421793705365953                0           0           0
         109           1   1.2439519999999999      -0.38410743065153063        3.3554006415297337       -5.1886705200984498                0           0           0
         110           1  0.85372000000000003      -0.79158606191766978        2.4278141836497511       -5.7176229258269551                0           0           0
         111           1  0.79320299999999999       0.60898447815244783        3.2932689980241570       -5.5597229895551763                0           0           0
         112           1  0.83657099999999995        1.1774510268982166        2.4624000468803278       -4.6478487964577546                0           0           0
         113           1  0.79898800000000003        2.9592318698731841        3.1881626616870733       -4.7820387845288597                0           0           0
         114           1  0.97961900000000002        3.5962081703641342        2.3810075864707869       -4.7887596329890556                0           0           0
         115           1  0.80490099999999998        4.3398493326843504        2.9633995017300627       -5.0329626473938260                0           0           0
         116           1  0.76785300000000001        5.2761257123734158        2.8452569674313075       -5.1968816207004815                0           0           0
         117           1  0.78729899999999997       -4.9507274941339716        4.4954368346674887       -5.4855448689817194                0           0           0
         118           1  0.86933700000000003       -5.5472470170064074        3.5932658293534612       -5.4426509187120971                0           0           0
         119           1   1.4795579999999999       -4.3737661936929824        3.5622332037187281       -5.4192549255612219                0           0           0
         120           1   1.1486650000000000       -3.1734413123024239        4.3794189358131117       -5.0915023162207689                0           0           0
         121           1  0.75789499999999999       -2.3861276052074056        3.7388881771067339       -4.9432498750657476                0           0           0
         122           1  0.80026200000000003       -2.3069227326405364        4.4540025581027862       -5.6304578942343246                0           0           0
         123           1  0.84546600000000005       -1.5149093810308782        3.9658739802543899       -5.5375977023747662                0           0           0
         124           1  0.74727200000000005       -1.2015835927869540        3.8589870502171291       -4.6744336721171198                0           0           0
         125           1   1.1842509999999999       -1.9088631653326602        4.5994616967293158       -4.6995426182482367                0           0           0
         126           1   1.0372950000000001      -0.63711391896050618        4.5088960069043829       -5.4111653583495807                0           0           0
         127           1  0.75573400000000002       0.28254695392301610        4.1536412748750831       -5.1189204034241609                0           0           0
         128           1  0.90554000000000001        1.2336211839908149        4.0952181182711733       -5.5709839415818614                0           0           0
         129           1  0.73019400000000001        1.8148049156744497        4.2092772262563276       -4.6918125662754502                0           0           0
         130           1   1.1501790000000001        2.1519460983526324        3.5468910769136794       -5.3254567637415464                0           0           0
         131           1   1.0361840000000000        3.0257570954872861        4.2495374631473748       -5.0725300063551204                0           0           0
         132           1  0.78415599999999996        3.9321893616567216        3.9108746794022444       -5.1478617691470028                0           0           0
         133           1  0.84128000000000003        4.6857628405243084        4.1842807461262197       -4.6285400333917410                0           0           0
         134           1   1.3047489999999999        4.8118786661782380        3.6901026727917241       -5.6336061184420680                0           0           0
         135           1  0.87163800000000002       -5.3637616134843125        5.3269459514729984       -5.1945081005970799                0           0           0
         136           1   1.1479109999999999       -4.3602023645668258        4.7489471336706863       -4.6945190527450062                0           0           0
         137           1  0.85967499999999997       -3.6053692025831650        5.3414522202571657       -5.1009643664145283                0           0           0
         138           1  0.80051799999999995       -4.4883825870956962        5.3878455793293583       -5.5091361023966270                0           0           0
         139           1   1.1004989999999999       -2.5880348746924615        5.4352125361909529       -5.4156099356095639                0           0           0
         140           1  0.95438500000000004       -1.5462848736508779        5.6982893008740536       -5.2027954105145318                0           0           0
         141           1  0.98720399999999997      -0.35374156568990944        5.6362724864558675       -5.5633416919049878                0           0           0
         142           1  0.86126300000000000       0.22701625258264446        5.0138064031837519       -4.8330093697154721                0           0           0
         143           1  0.79245800000000000        1.0900477888837683        4.6905870252702488       -4.7732534020833155                0           0           0
         144           1   1.2686580000000001        1.9895578748611360        4.9478023480444850       -5.3161904303754799                0           0           0
         145           1  0.86478800000000000        2.9183895397055171        5.2730332969907803       -4.8580685146922411                0           0           0
         146           1  0.73688299999999995        3.1458641133153513        5.0110713393437631       -5.6964692293544985                0           0           0
         147           1   1.4304490000000001        3.9914102261852094        4.9950737472161642       -4.9152635560203350                0           0           0
         148           1  0.76117100000000004        5.1013363730152204        5.0301053706149048       -5.0208573994391443                0           0           0
         149           1  0.81904200000000005        4.6147495235508469        4.8804168162898396        5.6736305718353126                0           0           0
         150           1  0.74355499999999997       -5.1788317636778096       -5.2308525912507573       -3.7825859804574868                0           0           0
         151           1  0.76271500000000003       -3.9000054472266470       -5.0070271283288141       -3.9586641099181881                0           0           0
         152           1  0.76898400000000000       -2.4804572923273152       -4.8021012763951143       -4.0455542499848693                0           0           0
         153           1   1.0236600000000000       -3.1862232943660374       -5.5534031183554946       -3.5192116633224564                0           0           0
         154           1  0.73077700000000001       -1.4907090582585765       -4.8796829695255841       -3.7864951766030943                0           0           0
         155           1   1.1202880000000000       -2.0158525911081955       -5.6731906078652052       -4.1931599237138570                0           0           0
         156           1  0.76807899999999996       -1.1714079273321705       -5.1735486770144563       -4.5029993298780493                0           0           0
         157           1   1.3321630000000000      -0.45424701422046621       -4.9756580836410285       -3.6644672998647385                0           0           0
         158           1  0.80179999999999996       0.65088357812583464       -4.9214939707991885       -3.9484381283787338                0           0           0
         159           1  0.94373200000000002        1.6110563219832263       -5.0587317854088321       -4.0292558690606537                0           0           0
         160           1  0.95481799999999994        3.1781398426745060       -4.6733810230348176       -4.5025382097009912                0           0           0
         161           1   1.4699640000000000        2.7744771654879283       -5.6439571401882125       -3.8559193644503731                0           0           0
         162           1   1.3309860000000000        4.2507949984127205       -5.0886776145311616       -4.0870919965611892                0           0           0
         163           1   1.1672389999999999        5.5670195741799198       -5.5025154649313635       -4.4553440266830302                0           0           0
         164           1  0.96901499999999996       -5.4439778243392309       -4.3996731692281195       -4.4208044922453471                0           0           0
         165           1   1.1382319999999999       -4.6470255242785701       -4.3866478081828078       -3.6097167382397979                0           0           0
         166           1   1.0295930000000000       -5.6958044594337451       -3.7180859413986527       -3.5814850063995007                0           0           0
         167           1  0.75638000000000005       -4.0997782392127426       -3.5521625704992705       -3.8348481020135501                0           0           0
         168           1   1.4976440000000000       -3.2644874130877191       -4.1968464001833254       -3.6199712613800661                0           0           0
         169           1   1.3677140000000001       -1.8445032727765853       -3.9688110641887930       -4.1954974935281726                0           0           0
         170           1  0.87362600000000001      -0.84454423052879779       -4.2985614626203903       -4.4503835791068820                0           0           0
         171           1  0.77448300000000003      -0.49123086320556375       -3.9088670626594357       -3.6635469337048758                0           0           0
         172           1   1.1426689999999999       0.17455074638739454       -4.1503775820043671       -4.4592612603909147                0           0           0
         173           1   1.6053649999999999        1.3704733078201068       -3.8481909227413458       -3.7895699409265138                0           0           0
         174           1  0.81254700000000002        2.3820179517824709       -4.4099036237805045       -4.0208274769980541                0           0           0
         175           1   1.5251770000000000        2.8617794819903306       -3.4512059209795183       -4.4871747029981401                0           0           0
         176           1  0.90739599999999998        3.8980581258181530       -3.9351776277761186       -4.1677174953288381                0           0           0
         177           1  0.91723800000000000        3.4623656731263157       -3.3057047795089800       -3.4498091523061314                0           0           0
         178           1  0.98055700000000001        4.9345836329070547       -4.1336268589811453       -4.2286349078205596                0           0           0
         179           1   1.4378010000000001       -4.9317626106641699       -3.2573164228097107       -4.4109294405911168                0           0           0