LAMMPS data file via write_data, version 17 Nov 2016, timestep = 0
      
  1500 atoms
      
1 atom types
  -5.7235712129999996        5.7235712129999996      xlo xhi
  -5.7235712129999996        5.7235712129999996      ylo yhi
  -5.7235712129999996        5.7235712129999996      zlo zhi
Masses
      
1 1
      
Pair Coeffs # lj/poly
      
                               1 1.0 1.0 2.025 1.25 0.2
      
Atoms # charge
      
           1           1  0.82965299999999997       -5.5448466453037000       -4.8799137135634680       -5.2648031527774171                0           0           0
           2           1   1.5413479999999999       -4.5772870452868712       -5.2703379518115039       -4.7543270314556967                0           0           0
           3           1  0.86062700000000003       -3.7986131415430613       -4.7713520863688590       -5.4900677586481335                0           0           0
           4           1   1.2325940000000000       -3.1699474530781035       -5.2175693400223357       -4.6529910132968082                0           0           0
           5           1  0.92110899999999996       -2.0785110473596524       -4.9021607841867576       -4.9082223959640059                0           0           0
           6           1   1.5043869999999999       -1.0389385668963209       -4.7550752556911560       -5.4727433457365535                0           0           0
           7           1  0.88103100000000001      -0.20363435206656977       -5.1733738622027117       -4.7412327257809403                0           0           0
           8           1  0.92227999999999999       0.28158288045785973       -4.6685655171519844       -5.4690705417140455                0           0           0
           9           1   1.5129459999999999       0.93351524263157426       -5.5199270842708748       -4.9780653449188463                0           0           0
          10           1  0.87097899999999995        2.1148220705214573       -5.5807993936195404       -4.7739705338339533                0           0           0
          11           1  0.82823300000000000        1.9382120509351282       -5.3955152581297012       -5.6976177543735762                0           0           0
          12           1   1.3333429999999999        3.0333243466949895       -5.3255979909727751       -5.5311038056933874                0           0           0
          13           1  0.81986499999999995        4.1246767142485492       -5.3067735279191464       -5.3198653545472645                0           0           0
          14           1  0.74748000000000003        3.5249404371040267       -5.5416876542207456       -4.6436517727637012                0           0           0
          15           1  0.86770400000000003        4.9207162178088328       -4.8177959911748074       -4.9795292479361102                0           0           0
          16           1  0.73948999999999998        4.6913529188786516       -5.6960327941540703       -4.7968305860346980                0           0           0
          17           1   1.1174949999999999       -4.8014933633599348       -4.1483886529477836       -5.5196722661489730                0           0           0
          18           1   1.0167780000000000       -3.9985078439098594       -4.1425623865871284       -4.6459205555989573                0           0           0
          19           1   1.0699300000000000       -2.8265633272901471       -4.0591519657089581       -4.8352226967465466                0           0           0
          20           1  0.76943799999999996       -1.9485238347531628       -4.0841215281091525       -5.3128878313708610                0           0           0
          21           1   1.0829869999999999      -0.25568268182473464       -3.7673554055586811       -5.6913567827885840                0           0           0
          22           1   1.3859269999999999       0.96453246902152845       -3.6924595566094789       -5.3554350258595340                0           0           0
          23           1  0.77240699999999995        1.1023832145171433       -4.5050577893294887       -4.6432322794078225                0           0           0
          24           1   1.1917739999999999        2.0308177790259956       -4.5402738290920990       -5.0014604652276775                0           0           0
          25           1  0.76583000000000001        1.8027898815776942       -3.5400048706362983       -4.7332803994085610                0           0           0
          26           1  0.97774899999999998        2.1601298232189556       -3.5649094369773024       -5.6177744410537702                0           0           0
          27           1  0.83108000000000004        2.9349383625639849       -4.1986416738431593       -5.3738482050248271                0           0           0
          28           1   1.2215430000000000        3.9894631038637165       -4.2748024645716960       -5.2337359548819382                0           0           0
          29           1   1.3806490000000000        5.3900093557188580       -3.8301824169903371       -5.3260592043172617                0           0           0
          30           1   1.0400879999999999       -5.1692489019277970       -2.9700422020405481       -5.6261749905976055                0           0           0
          31           1  0.77126099999999997       -4.2844566639403485       -3.2880793700322770       -5.2654824674778720                0           0           0
          32           1  0.92384800000000000       -4.2803501643794428       -2.3931382246607980       -4.9333332689482949                0           0           0
          33           1  0.88862900000000000       -2.3165774278754325       -3.1297289036863924       -4.8788846597819351                0           0           0
          34           1  0.86158199999999996       -3.0697117199856394       -2.8361477321207289       -5.5339547781607354                0           0           0
          35           1   1.1209890000000000       -1.3318833193440138       -3.3133856835236326       -5.3218386455433029                0           0           0
          36           1   1.2420370000000001      -0.20899336333925955       -2.9469299578339441       -4.7325228560326975                0           0           0
          37           1  0.88274100000000000       -1.0388558323772887       -2.3142196971279883       -5.1637094044544796                0           0           0
          38           1   1.0668899999999999       0.69517351782136227       -2.4520144857799271       -5.4163186319009062                0           0           0
          39           1   1.1892499999999999        1.8662893560401939       -2.5790681886867937       -5.0898886414624371                0           0           0
          40           1  0.78319600000000000        2.8130025709488002       -2.8154956983672923       -5.3711933554819700                0           0           0
          41           1  0.77194799999999997        2.7170583759299713       -2.2989137554329910       -4.5392555856844421                0           0           0
          42           1  0.74873199999999995        3.6784163210515857       -3.3193897766846070       -5.1723416133760836                0           0           0
          43           1   1.0263439999999999        4.5224914572302950       -3.2083729519553477       -4.7454169829030013                0           0           0
          44           1  0.81308199999999997        4.5548747733097397       -2.4885539554760419       -5.4128639927243274                0           0           0
          45           1   1.1161060000000000        3.6393783952839804       -2.3716461855290349       -4.9677021534288910                0           0           0
          46           1   1.2125560000000000        5.4699539226721754       -2.4273915988433448       -4.9134718568756899                0           0           0
          47           1  0.74192100000000005       -5.0016161439869657       -2.0569703636811179       -5.3654611578111790                0           0           0
          48           1  0.91800800000000005       -4.1473425425843455       -1.5553817979350804       -5.5041054929274029                0           0           0
          49           1  0.83222700000000005       -3.2328571231191319       -1.9486568710399008       -5.2780846244803854                0           0           0
          50           1   1.0095200000000000       -2.5302706530637873       -1.2197909833998661       -4.8833569907905421                0           0           0
          51           1   1.4893410000000000       -2.1371262886662477       -2.1872164815247319       -5.5796951229831500                0           0           0
          52           1   1.2179240000000000       -1.3403138729651385       -1.3150259340419170       -4.7720033244223510                0           0           0
          53           1   1.0644769999999999      -0.21759630988048784       -1.6493743029708181       -5.2237042668171378                0           0           0
          54           1   1.3780330000000001       0.96870079563882872       -1.2765747060014707       -5.0285355887709580                0           0           0
          55           1   1.0451729999999999        2.1528342693140221       -1.4325910345898762       -4.8230993398443953                0           0           0
          56           1  0.79520100000000005        3.6406003892230796       -1.3786708152189213       -5.2489606548210759                0           0           0
          57           1   1.0204660000000001        4.4259067417568598       -1.6002517232072133       -4.5987814881775364                0           0           0
          58           1  0.80856499999999998        5.3301234780296767       -1.3840513515381865       -5.0122306447227212                0           0           0
          59           1   1.3538969999999999       -5.0614251488609456       -1.0821762875529419       -4.9880997690991942                0           0           0
          60           1  0.75854699999999997       -4.0645886634993831      -0.68124476866694561       -5.1858002805741119                0           0           0
          61           1  0.73175199999999996       -2.4358658899856915      -0.42866226112340566       -5.3666541283251155                0           0           0
          62           1   1.0328729999999999       -3.2274121041733004      -0.31889586215334020       -4.8603731683245055                0           0           0
          63           1  0.75083299999999997       -1.6078165341392916      -0.29543274378763051       -5.2676827355332918                0           0           0
          64           1  0.82179500000000005       -1.8917837736796002       -1.0736972433087733       -5.6604308630261446                0           0           0
          65           1  0.90665300000000004      -1.03774898372002156E-002 -0.65345362673550689       -4.8689375933449250                0           0           0
          66           1  0.88653700000000002      -0.93744347188450305      -0.29907650642937789       -4.6179703960297935                0           0           0
          67           1   1.1960150000000001       0.61395418686769609      -5.73341686308381782E-002  -5.5089168392583785                0           0           0
          68           1   1.0855290000000000        1.7601423723346779      -0.25959845732448272       -4.9766795543753837                0           0           0
          69           1  0.97821599999999997        2.8744244581789875      -0.73994957893603175       -5.2592319160085994                0           0           0
          70           1   1.4363210000000000        3.8766844063898063      -0.47255085480432779       -4.6861265179526512                0           0           0
          71           1   1.1656560000000000        5.2164600510971599      -0.36113215787731257       -4.9090003624047025                0           0           0
          72           1   1.0241950000000000       -5.1398316617361122       5.56916845378960801E-002  -5.4434394957410985                0           0           0
          73           1  0.83424600000000004       -4.6104570812069969       0.76604918094250340       -4.9660380036840417                0           0           0
          74           1   1.2242780000000000       -5.7190689086576345       0.90067896968265870       -4.8403127217738220                0           0           0
          75           1   1.2615920000000000       -3.9372207355706488       0.26446756722124487       -5.6894198046050404                0           0           0
          76           1  0.96946900000000003       -2.7381075817831495       0.42563814926009336       -5.5132161824853485                0           0           0
          77           1   1.0105480000000000       -3.3853839545662661       0.85967101805181834       -4.7510191166868605                0           0           0
          78           1   1.1696240000000000       -1.6407600500602495       0.71675490255552443       -5.3723975614711250                0           0           0
          79           1  0.91265600000000002       -2.3032773816432566        1.0193117326672896       -4.5788331204694241                0           0           0
          80           1  0.77751099999999995      -0.66812674227849111       0.45610450070287811       -5.3567491672251961                0           0           0
          81           1  0.88239800000000002       0.43222596598337581        1.0349535790276345       -5.3365825418043853                0           0           0
          82           1  0.79924200000000001        1.0771716250482903       0.44416316469492756       -4.6720939221237590                0           0           0
          83           1   1.1011640000000000        1.4532823121693026       0.81843015795861263       -5.6066597759734105                0           0           0
          84           1   1.4763390000000001        2.1768419345277898       0.88613665875220704       -4.5385546284904548                0           0           0
          85           1  0.85063500000000003        2.9551432157777793       0.18224316679858088       -4.8856042017934360                0           0           0
          86           1  0.83979999999999999        3.6394818173946639       0.20952737003484945       -5.5411311473486071                0           0           0
          87           1   1.1119710000000000        4.4766596492656241       0.66050743750368479       -5.0034768636749591                0           0           0
          88           1  0.92940100000000003       -5.4546417352067778        1.9587140564724868       -5.0993488553152853                0           0           0
          89           1  0.98624599999999996       -4.6153115749240365        2.3569601669958526       -5.6282352283191432                0           0           0
          90           1  0.88377099999999997       -3.8566515179891567        1.4261184790267594       -5.5096494469200668                0           0           0
          91           1   1.4289920000000000       -4.4192017962284229        1.7659123781844066       -4.5664172694977836                0           0           0
          92           1   1.2863240000000000       -2.6725598445004874        1.6174013235403244       -5.4864161685771089                0           0           0
          93           1  0.83280200000000004       -3.2653983759361798        1.8639308473635481       -4.5873535498212368                0           0           0
          94           1  0.91532000000000002       -1.5878431039265442        1.8514472412863157       -5.2050053251735715                0           0           0
          95           1   1.0549850000000001      -0.61755545140021084        1.4266797064121119       -5.3288732352582109                0           0           0
          96           1   1.4844250000000001       0.40698490746384941        2.1879300398220343       -5.4386768870088282                0           0           0
          97           1  0.86414400000000002        1.4766434713981758        1.8109781838374843       -5.3063389908391621                0           0           0
          98           1   1.3125690000000001        2.4430454458652964        2.2799385763378908       -5.1470468594506116                0           0           0
          99           1  0.82318199999999997        2.3798563106323680        1.2558372855998821       -5.6230356334711891                0           0           0
         100           1   1.2526790000000001        3.4000260227355401        1.2326443895257766       -5.3650338930365535                0           0           0
         101           1   1.3715560000000000        4.6942516421952742        1.9428261551234485       -5.2159420871589681                0           0           0
         102           1   1.1018300000000001       -5.2709208365606104        2.9226701353703728       -4.6598360688548386                0           0           0
         103           1   1.0932630000000001       -3.5679704156691887        2.4629574091940345       -5.3432646092885250                0           0           0
         104           1  0.91189900000000002       -4.1205899807795410        2.8845522203780281       -4.5124450357872394                0           0           0
         105           1  0.73728300000000002       -2.6133657905104228        2.6418777327308707       -5.2588140466128017                0           0           0
         106           1  0.79696199999999995       -3.3066139689867344        3.4051621331169688       -5.2500782249873099                0           0           0
         107           1   1.2884510000000000       -1.6777245762290320        2.9539242581450083       -4.9463914188440903                0           0           0
         108           1  0.90628100000000000      -0.72896606453247248        2.3957175543184750       -4.7443499869751822                0           0           0
         109           1   1.2439519999999999      -0.38572278805071392        3.3539220716993796       -5.2015042633846491                0           0           0
         110           1  0.85372000000000003      -0.78060826016409202        2.4254345736172596       -5.7210242299725609                0           0           0
         111           1  0.79320299999999999       0.61299213162464739        3.3017681555186691       -5.5997068988784244                0           0           0
         112           1  0.83657099999999995        1.1747203252259615        2.4693444007230116       -4.6489982455274905                0           0           0
         113           1  0.79898800000000003        2.9612360892845651        3.1889673956215692       -4.7863217183774740                0           0           0
         114           1  0.97961900000000002        3.5961634528997344        2.3809349631414065       -4.7892513202262732                0           0           0
         115           1  0.80490099999999998        4.3401060229328579        2.9618929862460259       -5.0335248900518899                0           0           0
         116           1  0.76785300000000001        5.2750091370014811        2.8438357135664756       -5.1963648628009311                0           0           0
         117           1  0.78729899999999997       -4.9518359559059153        4.4939112999882660       -5.4862972121062912                0           0           0
         118           1  0.86933700000000003       -5.5477602739620959        3.5917404306396730       -5.4416399214144748                0           0           0
         119           1   1.4795579999999999       -4.3735784115695635        3.5617000805533099       -5.4161957844827864                0           0           0
         120           1   1.1486650000000000       -3.1845000114604893        4.3845593398812461       -5.0827018575215090                0           0           0
         121           1  0.75789499999999999       -2.3915117661035366        3.7426528272833117       -4.9437230704075059                0           0           0
         122           1  0.80026200000000003       -2.3213008860084430        4.4445762716595567       -5.6132470930529825                0           0           0
         123           1  0.84546600000000005       -1.5271550310677764        3.9550437210827081       -5.5379611907402548                0           0           0
         124           1  0.74727200000000005       -1.2040654271566149        3.8579839415044965       -4.6774001927812439                0           0           0
         125           1   1.1842509999999999       -1.9092042028216754        4.6014160332173990       -4.6933189563481754                0           0           0
         126           1   1.0372950000000001      -0.65540456922890034        4.5098046848450419       -5.4104285493324289                0           0           0
         127           1  0.75573400000000002       0.26056674182826978        4.1577598955709725       -5.1424942079290297                0           0           0
         128           1  0.90554000000000001        1.2423366965699305        4.0838614441037322       -5.6184140400499594                0           0           0
         129           1  0.73019400000000001        1.8124551577790289        4.2116443815603120       -4.6969503710632612                0           0           0
         130           1   1.1501790000000001        2.1533876704515134        3.5469562896769418       -5.3296399710909110                0           0           0
         131           1   1.0361840000000000        3.0269446586263644        4.2494376533141374       -5.0782322905365289                0           0           0
         132           1  0.78415599999999996        3.9319972983765918        3.9071090888532485       -5.1489724956570724                0           0           0
         133           1  0.84128000000000003        4.6852167107228908        4.1807153872311176       -4.6296687179790839                0           0           0
         134           1   1.3047489999999999        4.8114075032356318        3.6879989426876918       -5.6351044971735682                0           0           0
         135           1  0.87163800000000002       -5.3635645799834499        5.3253684198464377       -5.1929785974994296                0           0           0
         136           1   1.1479109999999999       -4.3644055634650432        4.7514714791099468       -4.6936387021256385                0           0           0
         137           1  0.85967499999999997       -3.6123054889868129        5.3534370478190727       -5.0963171696159177                0           0           0
         138           1  0.80051799999999995       -4.4896878498564590        5.3891923091685978       -5.5101792386742838                0           0           0
         139           1   1.1004989999999999       -2.5973523650380224        5.4366405500250057       -5.4115831296314063                0           0           0
         140           1  0.95438500000000004       -1.5516389275693605        5.6714396424451490       -5.1918625609512059                0           0           0
         141           1  0.98720399999999997      -0.33340603889651366        5.6301861119271521       -5.5518147424085091                0           0           0
         142           1  0.86126300000000000       0.22638504343764687        5.0135820657268333       -4.8427823674970725                0           0           0
         143           1  0.79245800000000000        1.0920599614365827        4.6977437394618864       -4.8004921177900561                0           0           0
         144           1   1.2686580000000001        1.9937214939651060        4.9429369266715675       -5.3308695728730635                0           0           0
         145           1  0.86478800000000000        2.9196434054789737        5.2692725178899487       -4.8619750497505834                0           0           0
         146           1  0.73688299999999995        3.1267325129555754        5.0169026711406346       -5.7100608963385548                0           0           0
         147           1   1.4304490000000001        3.9932586820845000        4.9937723231876952       -4.9132565059161069                0           0           0
         148           1  0.76117100000000004        5.1025865417429834        5.0298025335293897       -5.0211526857906303                0           0           0
         149           1  0.81904200000000005        4.6152940139321377        4.8804225655059543        5.6740437553521410                0           0           0
         150           1  0.74355499999999997       -5.1793692755032685       -5.2298667239867589       -3.7817971374835793                0           0           0
         151           1  0.76271500000000003       -3.8953175002852687       -5.0051819358389595       -3.9550506811811235                0           0           0
         152           1  0.76898400000000000       -2.4466604237672711       -4.7743407443717762       -4.0546965839826248                0           0           0
         153           1   1.0236600000000000       -3.1879793900018525       -5.5612679692642848       -3.5147489417187212                0           0           0
         154           1  0.73077700000000001       -1.4922228278950813       -4.9071918770978575       -3.7593193219052212                0           0           0
         155           1   1.1202880000000000       -2.0147669621173976       -5.6689598030621475       -4.1831964407633118                0           0           0
         156           1  0.76807899999999996       -1.1703813841040001       -5.1581145723667987       -4.4920070821202005                0           0           0
         157           1   1.3321630000000000      -0.46925582888966311       -4.9665640049152353       -3.6762538114424164                0           0           0
         158           1  0.80179999999999996       0.67237540531141793       -4.9364094068600926       -3.9319444880611618                0           0           0
         159           1  0.94373200000000002        1.6259928915093704       -5.0662203072622809       -4.0310946506408039                0           0           0
         160           1  0.95481799999999994        3.1766299286532327       -4.6759050621003277       -4.5078908747285613                0           0           0
         161           1   1.4699640000000000        2.7727988771881424       -5.6453834003593579       -3.8602319920832038                0           0           0
         162           1   1.3309860000000000        4.2496518125523153       -5.0909718337395109       -4.0896476464227289                0           0           0
         163           1   1.1672389999999999        5.5680545211602563       -5.5019474278912828       -4.4556145160829352                0           0           0
         164           1  0.96901499999999996       -5.4415856853381737       -4.4023124231623907       -4.4197029026929329                0           0           0
         165           1   1.1382319999999999       -4.6418816511825005       -4.3896766068340831       -3.6096070752769340                0           0           0
         166           1   1.0295930000000000       -5.6941607078034249       -3.7214230352154014       -3.5822703417696533                0           0           0
         167           1  0.75638000000000005       -4.0899306936393049       -3.5659154602010794       -3.8325289610581379                0           0           0
         168           1   1.4976440000000000       -3.2450298570079514       -4.2025217676965854       -3.6129121482110773                0           0           0
         169           1   1.3677140000000001       -1.7367759967230949       -4.0029933011703278       -4.2356399250904797                0           0           0
         170           1  0.87362600000000001      -0.74643819334021533       -3.9600344943649377       -4.7347077856654112                0           0           0
         171           1  0.77448300000000003      -0.48526545470393767       -3.9221788217305056       -3.6415853371992215                0           0           0
         172           1   1.1426689999999999       0.20144779214666286       -4.1801734599849780       -4.4303184887164964                0           0           0
         173           1   1.6053649999999999        1.3745733050490552       -3.8489304801539586       -3.7810608114189597                0           0           0
         174           1  0.81254700000000002        2.3842376502889504       -4.4095219958771041       -4.0212242048879272                0           0           0
         175           1   1.5251770000000000        2.8577473563713429       -3.4519470474327258       -4.4875925364689433                0           0           0
         176           1  0.90739599999999998        3.8973531571975304       -3.9367907103475162       -4.1718291833167838                0           0           0
         177           1  0.91723800000000000        3.4622840446452532       -3.3070167848623413       -3.4515044828818779                0           0           0
         178           1  0.98055700000000001        4.9350917553417730       -4.1357039456547273       -4.2291999558305911                0           0           0
         179           1   1.4378010000000001       -4.9221935686370664       -3.2644224274959517       -4.4093688892017235                0           0           0