LAMMPS data file via write_data, version 17 Nov 2016, timestep = 0
      
  1500 atoms
      
1 atom types
  -5.7235712129999996        5.7235712129999996      xlo xhi
  -5.7235712129999996        5.7235712129999996      ylo yhi
  -5.7235712129999996        5.7235712129999996      zlo zhi
Masses
      
1 1
      
Pair Coeffs # lj/poly
      
                               1 1.0 1.0 2.025 1.25 0.2
      
Atoms # charge
      
           1           1  0.82965299999999997       -5.5504547144169498       -4.8783645277608381       -5.2658756800862925                0           0           0
           2           1   1.5413479999999999       -4.5843770412028961       -5.2686771277131221       -4.7568119471449810                0           0           0
           3           1  0.86062700000000003       -3.8081331404919321       -4.7641287957221268       -5.4932613307898963                0           0           0
           4           1   1.2325940000000000       -3.1810625152690113       -5.2237275084269008       -4.6626223250390986                0           0           0
           5           1  0.92110899999999996       -2.0841126012553421       -4.8887606484187440       -4.8968944017385985                0           0           0
           6           1   1.5043869999999999       -1.0412141445606684       -4.7216677638389175       -5.4695373346109957                0           0           0
           7           1  0.88103100000000001      -0.20866648937121468       -5.1689801783654810       -4.7420295559864485                0           0           0
           8           1  0.92227999999999999       0.28954322969273161       -4.6686206281060958       -5.4683875165007727                0           0           0
           9           1   1.5129459999999999       0.93045739516361614       -5.5264321090074571       -4.9796508424383799                0           0           0
          10           1  0.87097899999999995        2.1109104919911807       -5.5798142597428919       -4.7727123890588770                0           0           0
          11           1  0.82823300000000000        1.9348769204476026       -5.3946720431276702       -5.6975008120759574                0           0           0
          12           1   1.3333429999999999        3.0292582199613562       -5.3249829049358546       -5.5310937766293122                0           0           0
          13           1  0.81986499999999995        4.1214284588469461       -5.3056171443103732       -5.3218519970699498                0           0           0
          14           1  0.74748000000000003        3.5234044004085572       -5.5408839090007316       -4.6444113018724078                0           0           0
          15           1  0.86770400000000003        4.9162801077380038       -4.8167220398176660       -4.9810235225587567                0           0           0
          16           1  0.73948999999999998        4.6880132399218510       -5.6942984746797629       -4.7976798679601549                0           0           0
          17           1   1.1174949999999999       -4.8102593420805055       -4.1488293785489203       -5.5306817462421511                0           0           0
          18           1   1.0167780000000000       -4.0245721850008387       -4.1320630064903163       -4.6503388390596765                0           0           0
          19           1   1.0699300000000000       -2.8717642015349703       -4.0586600881361647       -4.8571385695037428                0           0           0
          20           1  0.76943799999999996       -1.9727199039170329       -4.0776719811284554       -5.3014861617333890                0           0           0
          21           1   1.0829869999999999      -0.23819171125163408       -3.7565171870799268       -5.6627157867244415                0           0           0
          22           1   1.3859269999999999       0.97700499305051469       -3.6853641507431201       -5.3580916640084091                0           0           0
          23           1  0.77240699999999995        1.0776400719521364       -4.5039219076165935       -4.6542644908263622                0           0           0
          24           1   1.1917739999999999        2.0206059937547796       -4.5399687445147325       -4.9997752425332198                0           0           0
          25           1  0.76583000000000001        1.8093938387442252       -3.5361524652527554       -4.7339862016060090                0           0           0
          26           1  0.97774899999999998        2.1636714118674787       -3.5637387292578322       -5.6194045078186887                0           0           0
          27           1  0.83108000000000004        2.9284860286736389       -4.2017109600817930       -5.3748488873727434                0           0           0
          28           1   1.2215430000000000        3.9842505434307469       -4.2736999990888673       -5.2344879290466970                0           0           0
          29           1   1.3806490000000000        5.3859605774528170       -3.8290753833737288       -5.3278773345578809                0           0           0
          30           1   1.0400879999999999       -5.1726082735467767       -2.9687574235696816       -5.6309582563834555                0           0           0
          31           1  0.77126099999999997       -4.2918943524413375       -3.2869606010948433       -5.2671867682326310                0           0           0
          32           1  0.92384800000000000       -4.2980742347078369       -2.3854452870537024       -4.9391250703997454                0           0           0
          33           1  0.88862900000000000       -2.3288089486338839       -3.1320763991933220       -4.8729595194485364                0           0           0
          34           1  0.86158199999999996       -3.0721613857669432       -2.8363131455512334       -5.5419575006590600                0           0           0
          35           1   1.1209890000000000       -1.3099606399304617       -3.3546607408770557       -5.2634713163920184                0           0           0
          36           1   1.2420370000000001      -0.20240533401543814       -2.9248052991515241       -4.7210039232413843                0           0           0
          37           1  0.88274100000000000       -1.0396475048395333       -2.3273241412726513       -5.1676216293227677                0           0           0
          38           1   1.0668899999999999       0.70322585748974120       -2.4481266593194855       -5.4167430347553935                0           0           0
          39           1   1.1892499999999999        1.8733562442299547       -2.5763776299704717       -5.0885412183134964                0           0           0
          40           1  0.78319600000000000        2.8199146890452589       -2.8161245702965658       -5.3725406965053661                0           0           0
          41           1  0.77194799999999997        2.7232946654903962       -2.3007939372170729       -4.5332214966361395                0           0           0
          42           1  0.74873199999999995        3.6753927231204369       -3.3150919430732895       -5.1783074095328008                0           0           0
          43           1   1.0263439999999999        4.5176522891053370       -3.2103516083830912       -4.7482522450000069                0           0           0
          44           1  0.81308199999999997        4.5535162311332389       -2.4928094611140197       -5.4188215223901306                0           0           0
          45           1   1.1161060000000000        3.6432583368091791       -2.3678574100161338       -4.9670907212388595                0           0           0
          46           1   1.2125560000000000        5.4640859470681136       -2.4236143925233082       -4.9159739783246579                0           0           0
          47           1  0.74192100000000005       -5.0485811646050749       -2.0642603339499463       -5.3269662418713741                0           0           0
          48           1  0.91800800000000005       -4.1420069051815531       -1.5507079040798004       -5.5027909190690023                0           0           0
          49           1  0.83222700000000005       -3.2278269407381899       -1.9498074728874459       -5.2754407493439199                0           0           0
          50           1   1.0095200000000000       -2.5289591987105724       -1.2218846953869056       -4.8865162710558323                0           0           0
          51           1   1.4893410000000000       -2.1338127376721987       -2.1925631306404267       -5.5786462892536930                0           0           0
          52           1   1.2179240000000000       -1.3399411757139443       -1.3185278463228389       -4.7707098586504930                0           0           0
          53           1   1.0644769999999999      -0.21617389735029580       -1.6527350694873837       -5.2178022161826423                0           0           0
          54           1   1.3780330000000001       0.97138554315426529       -1.2742479697614986       -5.0285140247472704                0           0           0
          55           1   1.0451729999999999        2.1549335778909748       -1.4301628340450963       -4.8214553345529918                0           0           0
          56           1  0.79520100000000005        3.6401464999437536       -1.3757081314617805       -5.2473689233055758                0           0           0
          57           1   1.0204660000000001        4.4306618572167586       -1.5939535969273244       -4.6002943039871003                0           0           0
          58           1  0.80856499999999998        5.3341821050669562       -1.3801729689088171       -5.0192488716168810                0           0           0
          59           1   1.3538969999999999       -5.0572772164978588       -1.0776279682796002       -4.9875121466339047                0           0           0
          60           1  0.75854699999999997       -4.0631203071756783      -0.67777818163101955       -5.1851932489344748                0           0           0
          61           1  0.73175199999999996       -2.4344499170785441      -0.43022167774031583       -5.3673199416843165                0           0           0
          62           1   1.0328729999999999       -3.2258895586490937      -0.32017189169351479       -4.8593250912875972                0           0           0
          63           1  0.75083299999999997       -1.6067951333737494      -0.29735077811028088       -5.2684577582356571                0           0           0
          64           1  0.82179500000000005       -1.8890056194127340       -1.0768839562658972       -5.6611457043393285                0           0           0
          65           1  0.90665300000000004      -9.36480086306623605E-003 -0.65487703341554226       -4.8672280981323466                0           0           0
          66           1  0.88653700000000002      -0.93709919048051482      -0.29986928371434907       -4.6178776861949942                0           0           0
          67           1   1.1960150000000001       0.61384387789181716      -5.79300787932055528E-002  -5.5083628864245888                0           0           0
          68           1   1.0855290000000000        1.7617613688595011      -0.25743523883443498       -4.9765800274594447                0           0           0
          69           1  0.97821599999999997        2.8750304041725698      -0.73775193842033282       -5.2589768428238441                0           0           0
          70           1   1.4363210000000000        3.8766440353694556      -0.46971415411200024       -4.6856193360737777                0           0           0
          71           1   1.1656560000000000        5.2170119134619544      -0.35893405271990186       -4.9073650604379404                0           0           0
          72           1   1.0241950000000000       -5.1413813828791799       5.76247673264820293E-002  -5.4446824683585593                0           0           0
          73           1  0.83424600000000004       -4.6107226168971556       0.76592072147544332       -4.9656992839496663                0           0           0
          74           1   1.2242780000000000       -5.7192320594952948       0.90201999094646279       -4.8396042952519815                0           0           0
          75           1   1.2615920000000000       -3.9365461189439745       0.26469589624854528       -5.6887383145161072                0           0           0
          76           1  0.96946900000000003       -2.7373688839378616       0.42378016542843433       -5.5134733879797944                0           0           0
          77           1   1.0105480000000000       -3.3824150772052559       0.85927736786693654       -4.7504372952383020                0           0           0
          78           1   1.1696240000000000       -1.6401323548191424       0.71509450836406607       -5.3736382265727860                0           0           0
          79           1  0.91265600000000002       -2.2986048647659274        1.0231849046660795       -4.5784476866845640                0           0           0
          80           1  0.77751099999999995      -0.66769756841220484       0.45417226800885135       -5.3555671675263365                0           0           0
          81           1  0.88239800000000002       0.43267115718133820        1.0345577231880618       -5.3354921286500856                0           0           0
          82           1  0.79924200000000001        1.0770734642300903       0.44448408229311998       -4.6716639127432122                0           0           0
          83           1   1.1011640000000000        1.4535855441110979       0.81799749754775952       -5.6056953853171727                0           0           0
          84           1   1.4763390000000001        2.1770056666750675       0.88773390341633007       -4.5372058649577891                0           0           0
          85           1  0.85063500000000003        2.9557838623235853       0.18498656366824484       -4.8857585947698698                0           0           0
          86           1  0.83979999999999999        3.6405218226378810       0.21033295710395983       -5.5414689862056132                0           0           0
          87           1   1.1119710000000000        4.4769666070580278       0.66231444188704813       -5.0029521673560495                0           0           0
          88           1  0.92940100000000003       -5.4559407817133847        1.9597781825996234       -5.0994990361229595                0           0           0
          89           1  0.98624599999999996       -4.6164255418007780        2.3569504986693879       -5.6287584369813963                0           0           0
          90           1  0.88377099999999997       -3.8566131771931964        1.4238737713125964       -5.5091882335723472                0           0           0
          91           1   1.4289920000000000       -4.4198386780397030        1.7663181345104464       -4.5668633045611466                0           0           0
          92           1   1.2863240000000000       -2.6721991593439385        1.6160382496487706       -5.4866826426745829                0           0           0
          93           1  0.83280200000000004       -3.2647651860054947        1.8631848508403710       -4.5871702089998898                0           0           0
          94           1  0.91532000000000002       -1.5876395896724080        1.8496694156991245       -5.2040136394939545                0           0           0
          95           1   1.0549850000000001      -0.61734659279427184        1.4253206965556400       -5.3276202288996872                0           0           0
          96           1   1.4844250000000001       0.40689039415282657        2.1876061539776179       -5.4370446156652754                0           0           0
          97           1  0.86414400000000002        1.4768151960745417        1.8105776954157102       -5.3053350052820551                0           0           0
          98           1   1.3125690000000001        2.4424969466048534        2.2814024797879728       -5.1464153141836331                0           0           0
          99           1  0.82318199999999997        2.3796247610626988        1.2565379444381879       -5.6210752445813092                0           0           0
         100           1   1.2526790000000001        3.3999256303863170        1.2332628122079905       -5.3636814382041722                0           0           0
         101           1   1.3715560000000000        4.6937084845203927        1.9441291933420048       -5.2160973338662071                0           0           0
         102           1   1.1018300000000001       -5.2714024201762850        2.9229961433065803       -4.6589670831203289                0           0           0
         103           1   1.0932630000000001       -3.5688472376821210        2.4603599372366958       -5.3434303507304133                0           0           0
         104           1  0.91189900000000002       -4.1206383554274906        2.8846292645188782       -4.5130222452916602                0           0           0
         105           1  0.73728300000000002       -2.6137005171397623        2.6403669441586839       -5.2585193867469426                0           0           0
         106           1  0.79696199999999995       -3.3086179248162813        3.4017145890995728       -5.2516911046618224                0           0           0
         107           1   1.2884510000000000       -1.6771681827089715        2.9527314762768953       -4.9461368332391373                0           0           0
         108           1  0.90628100000000000      -0.72816010443942147        2.3950740057880946       -4.7434695452926938                0           0           0
         109           1   1.2439519999999999      -0.38566861684695297        3.3524406826323947       -5.2020590978261483                0           0           0
         110           1  0.85372000000000003      -0.78147309785515251        2.4241391360549898       -5.7201281387359231                0           0           0
         111           1  0.79320299999999999       0.61228930485075139        3.3022112505830279       -5.5994352562640763                0           0           0
         112           1  0.83657099999999995        1.1751078917235613        2.4692465769090841       -4.6482153082241364                0           0           0
         113           1  0.79898800000000003        2.9602490682249165        3.1908985068033378       -4.7857763033073706                0           0           0
         114           1  0.97961900000000002        3.5954348626646375        2.3825432468495578       -4.7887489329246069                0           0           0
         115           1  0.80490099999999998        4.3400376558299456        2.9627419694320505       -5.0320576216263468                0           0           0
         116           1  0.76785300000000001        5.2759465019645493        2.8446001013677833       -5.1959253678930111                0           0           0
         117           1  0.78729899999999997       -4.9532174694275160        4.4939007219955140       -5.4860743406455104                0           0           0
         118           1  0.86933700000000003       -5.5490603664027187        3.5910498847707384       -5.4413583609568859                0           0           0
         119           1   1.4795579999999999       -4.3748507874865421        3.5612437096307747       -5.4167793673657165                0           0           0
         120           1   1.1486650000000000       -3.1820172097378747        4.3796816983137550       -5.0857709921464611                0           0           0
         121           1  0.75789499999999999       -2.3907258619656897        3.7389345118896617       -4.9445799834381274                0           0           0
         122           1  0.80026200000000003       -2.3194882027335857        4.4438230016535449       -5.6192107182486373                0           0           0
         123           1  0.84546600000000005       -1.5254684486855394        3.9541712993432814       -5.5396045005937964                0           0           0
         124           1  0.74727200000000005       -1.2015880607538900        3.8569572092766027       -4.6788380391962843                0           0           0
         125           1   1.1842509999999999       -1.9089301440139876        4.5975157280025840       -4.6983779644981318                0           0           0
         126           1   1.0372950000000001      -0.65196504567217684        4.5070868855812840       -5.4131494637457065                0           0           0
         127           1  0.75573400000000002       0.26399320439680896        4.1541461987510520       -5.1470311618682514                0           0           0
         128           1  0.90554000000000001        1.2386851918952013        4.0859883868696674       -5.6175042213378772                0           0           0
         129           1  0.73019400000000001        1.8115904760288037        4.2133754981177116       -4.6938616393186905                0           0           0
         130           1   1.1501790000000001        2.1513218902787843        3.5487935828156214       -5.3283140678629994                0           0           0
         131           1   1.0361840000000000        3.0260855046716593        4.2496805326589318       -5.0778077653918645                0           0           0
         132           1  0.78415599999999996        3.9313785326663133        3.9079106804015691       -5.1491311177420922                0           0           0
         133           1  0.84128000000000003        4.6843937112770675        4.1817628248833056       -4.6302894030766453                0           0           0
         134           1   1.3047489999999999        4.8103323446870441        3.6874629833977952       -5.6356710905471106                0           0           0
         135           1  0.87163800000000002       -5.3663448738364270        5.3261915967850015       -5.1937757192836278                0           0           0
         136           1   1.1479109999999999       -4.3650133849210286        4.7506311313901914       -4.6938782006622315                0           0           0
         137           1  0.85967499999999997       -3.6101672628197212        5.3432329353068528       -5.1007000583224000                0           0           0
         138           1  0.80051799999999995       -4.4911661407248111        5.3879993961883947       -5.5097039931010476                0           0           0
         139           1   1.1004989999999999       -2.5920461411532085        5.4351094643831903       -5.4115870698993831                0           0           0
         140           1  0.95438500000000004       -1.5449054587577509        5.6927185009714396       -5.2040772316640096                0           0           0
         141           1  0.98720399999999997      -0.34860868397041944        5.6365189155740225       -5.5584456125049142                0           0           0
         142           1  0.86126300000000000       0.22383409949022681        5.0069538603696824       -4.8435315263055472                0           0           0
         143           1  0.79245800000000000        1.0911467966657424        4.6974068721553266       -4.8014913937070745                0           0           0
         144           1   1.2686580000000001        1.9929285499299185        4.9429819611608856       -5.3305481533992030                0           0           0
         145           1  0.86478800000000000        2.9182104954934651        5.2699384559543567       -4.8622527670725928                0           0           0
         146           1  0.73688299999999995        3.1244039955480325        5.0168613036604341       -5.7102009727618279                0           0           0
         147           1   1.4304490000000001        3.9918012800747427        4.9945405015657141       -4.9135550010644602                0           0           0
         148           1  0.76117100000000004        5.1012739096992714        5.0315676061946597       -5.0210472258586849                0           0           0
         149           1  0.81904200000000005        4.6137261204326556        4.8803639301877233        5.6738619024531936                0           0           0
         150           1  0.74355499999999997       -5.1811152618055454       -5.2316220304057648       -3.7812525958859782                0           0           0
         151           1  0.76271500000000003       -3.9019411982244199       -5.0072606490189262       -3.9585770817572783                0           0           0
         152           1  0.76898400000000000       -2.4812172661374676       -4.8034451657074655       -4.0467651143312242                0           0           0
         153           1   1.0236600000000000       -3.1868139698510989       -5.5537212997482301       -3.5198478177142865                0           0           0
         154           1  0.73077700000000001       -1.4910254079083547       -4.8801815025626620       -3.7888672289788330                0           0           0
         155           1   1.1202880000000000       -2.0160382093760161       -5.6743600407167287       -4.1948778404972389                0           0           0
         156           1  0.76807899999999996       -1.1707785868401617       -5.1780533038895706       -4.5036010969475342                0           0           0
         157           1   1.3321630000000000      -0.45477180172310216       -4.9789598065849061       -3.6643858698908574                0           0           0
         158           1  0.80179999999999996       0.64783350174538068       -4.9240034820886773       -3.9495717482920036                0           0           0
         159           1  0.94373200000000002        1.6071058799706535       -5.0666203547405075       -4.0336032325559295                0           0           0
         160           1  0.95481799999999994        3.1736037376345951       -4.6764226868695786       -4.5073433973834938                0           0           0
         161           1   1.4699640000000000        2.7703726247156784       -5.6461791181705934       -3.8608280058763000                0           0           0
         162           1   1.3309860000000000        4.2470330633282245       -5.0894572103666036       -4.0890843914276331                0           0           0
         163           1   1.1672389999999999        5.5643911323741406       -5.5001157357505583       -4.4560276890358077                0           0           0
         164           1  0.96901499999999996       -5.4444533508911839       -4.3984800004317037       -4.4221051694091411                0           0           0
         165           1   1.1382319999999999       -4.6481161532109665       -4.3867804511571169       -3.6103131119191447                0           0           0
         166           1   1.0295930000000000       -5.6963553611903404       -3.7178435193549948       -3.5825662917212155                0           0           0
         167           1  0.75638000000000005       -4.1008874124931953       -3.5523405386358551       -3.8355593593446207                0           0           0
         168           1   1.4976440000000000       -3.2652681139693507       -4.1974561192068824       -3.6204048096353754                0           0           0
         169           1   1.3677140000000001       -1.8463191409878816       -3.9697066201578197       -4.1966044845688870                0           0           0
         170           1  0.87362600000000001      -0.84707089685972559       -4.3023964798257195       -4.4489197676786993                0           0           0
         171           1  0.77448300000000003      -0.49141706647071359       -3.9108674259892080       -3.6644204205378110                0           0           0
         172           1   1.1426689999999999       0.17163548333864398       -4.1516567391635064       -4.4599435980589730                0           0           0
         173           1   1.6053649999999999        1.3677365895065670       -3.8522130851008614       -3.7925752053987947                0           0           0
         174           1  0.81254700000000002        2.3790802570615561       -4.4120294290126232       -4.0233351649397084                0           0           0
         175           1   1.5251770000000000        2.8597805638206584       -3.4537748995758251       -4.4889000596509625                0           0           0
         176           1  0.90739599999999998        3.8961597645788455       -3.9384076244288728       -4.1708613084719524                0           0           0
         177           1  0.91723800000000000        3.4612513222623829       -3.3080174033595267       -3.4521509735860314                0           0           0
         178           1  0.98055700000000001        4.9336774227461824       -4.1353481605957878       -4.2299915656344771                0           0           0
         179           1   1.4378010000000001       -4.9330504357074716       -3.2564605095240462       -4.4119859239549886                0           0           0