LAMMPS data file via write_data, version 17 Nov 2016, timestep = 0
      
  1500 atoms
      
1 atom types
  -5.7235712129999996        5.7235712129999996      xlo xhi
  -5.7235712129999996        5.7235712129999996      ylo yhi
  -5.7235712129999996        5.7235712129999996      zlo zhi
Masses
      
1 1
      
Pair Coeffs # lj/poly
      
                               1 1.0 1.0 2.025 1.25 0.2
      
Atoms # charge
      
           1           1  0.82965299999999997       -5.5420667723820278       -4.8812916863594253       -5.2671135532762596                0           0           0
           2           1   1.5413479999999999       -4.5746336044013312       -5.2714134120297400       -4.7569469951633101                0           0           0
           3           1  0.86062700000000003       -3.7960002680427980       -4.7718276671300259       -5.4913911610489228                0           0           0
           4           1   1.2325940000000000       -3.1683769218173050       -5.2182271688924251       -4.6527852267349008                0           0           0
           5           1  0.92110899999999996       -2.0775585450738188       -4.9046115212671326       -4.9089344350134905                0           0           0
           6           1   1.5043869999999999       -1.0380927394440791       -4.7556599145922425       -5.4721437688138268                0           0           0
           7           1  0.88103100000000001      -0.20286589185192483       -5.1728580664753032       -4.7388938007660091                0           0           0
           8           1  0.92227999999999999       0.28085972324007091       -4.6678836521323435       -5.4672316024686669                0           0           0
           9           1   1.5129459999999999       0.93642304463137993       -5.5147097215705640       -4.9743740676135406                0           0           0
          10           1  0.87097899999999995        2.1151234590389150       -5.5788043154505216       -4.7689742027560946                0           0           0
          11           1  0.82823300000000000        1.9388520821743596       -5.3954343282278376       -5.6932088667993233                0           0           0
          12           1   1.3333429999999999        3.0339999678260892       -5.3241236428524772       -5.5291136591999903                0           0           0
          13           1  0.81986499999999995        4.1255849849381541       -5.3079014162127534       -5.3196769985191557                0           0           0
          14           1  0.74748000000000003        3.5254777209240427       -5.5391896117385944       -4.6419912825973064                0           0           0
          15           1  0.86770400000000003        4.9244420933522655       -4.8176403128211636       -4.9808432027118137                0           0           0
          16           1  0.73948999999999998        4.6919172914335707       -5.6966969810150507       -4.7978507411571671                0           0           0
          17           1   1.1174949999999999       -4.7970768406780007       -4.1499589957400778       -5.5217064666692997                0           0           0
          18           1   1.0167780000000000       -3.9942394981556353       -4.1452001422191440       -4.6460514109602462                0           0           0
          19           1   1.0699300000000000       -2.8236673077088845       -4.0603052335221328       -4.8349469783740080                0           0           0
          20           1  0.76943799999999996       -1.9468537562961767       -4.0857687687882835       -5.3131588149451110                0           0           0
          21           1   1.0829869999999999      -0.25468996079101469       -3.7671531476732985       -5.6912872498134837                0           0           0
          22           1   1.3859269999999999       0.96554789132276486       -3.6931391246957941       -5.3525521137114893                0           0           0
          23           1  0.77240699999999995        1.1089621464728232       -4.5020388149409607       -4.6357495960306654                0           0           0
          24           1   1.1917739999999999        2.0351908634531277       -4.5381749444255419       -4.9965777100172533                0           0           0
          25           1  0.76583000000000001        1.8022022859277964       -3.5382815349223757       -4.7294147556973396                0           0           0
          26           1  0.97774899999999998        2.1606610661014969       -3.5635668318664160       -5.6148568401360350                0           0           0
          27           1  0.83108000000000004        2.9373303621478719       -4.1938214595652603       -5.3714319930509964                0           0           0
          28           1   1.2215430000000000        3.9929443009568626       -4.2760877096882828       -5.2407702134542555                0           0           0
          29           1   1.3806490000000000        5.3946505790253010       -3.8310874382944951       -5.3288220371560158                0           0           0
          30           1   1.0400879999999999       -5.1632677619905856       -2.9726357557895846       -5.6295436183591807                0           0           0
          31           1  0.77126099999999997       -4.2800418511873808       -3.2893884274478347       -5.2687791645688549                0           0           0
          32           1  0.92384800000000000       -4.2764903690308511       -2.3965690894067810       -4.9361045975011075                0           0           0
          33           1  0.88862900000000000       -2.3144890559545934       -3.1304718986390454       -4.8786335314869964                0           0           0
          34           1  0.86158199999999996       -3.0682421524599821       -2.8367577862764879       -5.5344334013854244                0           0           0
          35           1   1.1209890000000000       -1.3299953375883682       -3.3149912524410730       -5.3204010944089237                0           0           0
          36           1   1.2420370000000001      -0.20740743503725501       -2.9489749060994512       -4.7299030203023111                0           0           0
          37           1  0.88274100000000000       -1.0377011813973871       -2.3154863819769780       -5.1621000587404771                0           0           0
          38           1   1.0668899999999999       0.69542784961502058       -2.4523842581859174       -5.4131467097744830                0           0           0
          39           1   1.1892499999999999        1.8661317432296602       -2.5777591365606218       -5.0867351893712227                0           0           0
          40           1  0.78319600000000000        2.8098534495768170       -2.8139048462131897       -5.3731550092148161                0           0           0
          41           1  0.77194799999999997        2.7210861228843548       -2.2918242608441814       -4.5447607142060225                0           0           0
          42           1  0.74873199999999995        3.6788999059900505       -3.3237400470621448       -5.1707587641783395                0           0           0
          43           1   1.0263439999999999        4.5280576541775392       -3.2044296743592957       -4.7578758855604564                0           0           0
          44           1  0.81308199999999997        4.5619797057613045       -2.4814880562522630       -5.4176249050847423                0           0           0
          45           1   1.1161060000000000        3.6406666022288494       -2.3727630333478760       -4.9798790283873711                0           0           0
          46           1   1.2125560000000000        5.4815454412649132       -2.4302097741682731       -4.9171585099625217                0           0           0
          47           1  0.74192100000000005       -5.0030117635034923       -2.0589875927151171       -5.3628258724645796                0           0           0
          48           1  0.91800800000000005       -4.1490463711043049       -1.5559374578012379       -5.5041393726780132                0           0           0
          49           1  0.83222700000000005       -3.2326224942178792       -1.9495659501113196       -5.2779285550676684                0           0           0
          50           1   1.0095200000000000       -2.5309160898207472       -1.2205725737077433       -4.8830274146068904                0           0           0
          51           1   1.4893410000000000       -2.1358178407846782       -2.1877962492001433       -5.5789174164201887                0           0           0
          52           1   1.2179240000000000       -1.3402404881595675       -1.3165228886169995       -4.7706714585600647                0           0           0
          53           1   1.0644769999999999      -0.21735538570872670       -1.6496604627141416       -5.2207016904120724                0           0           0
          54           1   1.3780330000000001       0.96792105576900145       -1.2761907252274005       -5.0266409916853565                0           0           0
          55           1   1.0451729999999999        2.1522055275056671       -1.4305824292792026       -4.8245809748166204                0           0           0
          56           1  0.79520100000000005        3.6393652147317681       -1.3738277532821099       -5.2551163456852228                0           0           0
          57           1   1.0204660000000001        4.4133557168738857       -1.5958027973344207       -4.6042166934856059                0           0           0
          58           1  0.80856499999999998        5.3248427222994401       -1.3870704638235729       -5.0094717044325936                0           0           0
          59           1   1.3538969999999999       -5.0646620193592549       -1.0811597710150451       -4.9898604331613194                0           0           0
          60           1  0.75854699999999997       -4.0658393482375628      -0.68180911206477646       -5.1856803842118415                0           0           0
          61           1  0.73175199999999996       -2.4363882213397794      -0.42934934221940857       -5.3661311945030201                0           0           0
          62           1   1.0328729999999999       -3.2281620103264359      -0.31968560331474727       -4.8600009737656622                0           0           0
          63           1  0.75083299999999997       -1.6083462246570273      -0.29530830402774200       -5.2673364914811236                0           0           0
          64           1  0.82179500000000005       -1.8912544321022313       -1.0739776562585091       -5.6593463496693319                0           0           0
          65           1  0.90665300000000004      -1.05990769887318592E-002 -0.65296592058427105       -4.8677325673737251                0           0           0
          66           1  0.88653700000000002      -0.93818946188697439      -0.29973577716515187       -4.6175746851086128                0           0           0
          67           1   1.1960150000000001       0.61315566874432914      -5.73530636493018164E-002  -5.5094148269603540                0           0           0
          68           1   1.0855290000000000        1.7594190829298624      -0.25880387829489138       -4.9774254871266184                0           0           0
          69           1  0.97821599999999997        2.8728814710709525      -0.73680613777880133       -5.2606033210578040                0           0           0
          70           1   1.4363210000000000        3.8756902636126469      -0.46774542692709797       -4.6876691181770234                0           0           0
          71           1   1.1656560000000000        5.2155099063609178      -0.36145485197101479       -4.9110488050551178                0           0           0
          72           1   1.0241950000000000       -5.1398439120624806       5.69268674016640830E-002  -5.4440852746499839                0           0           0
          73           1  0.83424600000000004       -4.6100950645479930       0.76631760913110814       -4.9659559304992911                0           0           0
          74           1   1.2242780000000000       -5.7191354192796746       0.90130039435606424       -4.8404041254489210                0           0           0
          75           1   1.2615920000000000       -3.9373053271408214       0.26413265287095200       -5.6894537796596403                0           0           0
          76           1  0.96946900000000003       -2.7382851814872922       0.42524790267796320       -5.5123971544143355                0           0           0
          77           1   1.0105480000000000       -3.3866124342557624       0.85925172615283874       -4.7509076966630550                0           0           0
          78           1   1.1696240000000000       -1.6409355303069404       0.71668885676290994       -5.3711720393412268                0           0           0
          79           1  0.91265600000000002       -2.3049523944891113        1.0180676099925057       -4.5784502013851807                0           0           0
          80           1  0.77751099999999995      -0.66801587966386666       0.45626646941934190       -5.3568177741201897                0           0           0
          81           1  0.88239800000000002       0.43150691880048253        1.0347166932804512       -5.3363912233005211                0           0           0
          82           1  0.79924200000000001        1.0757611895956058       0.44401819543617371       -4.6722635683737010                0           0           0
          83           1   1.1011640000000000        1.4522706846000348       0.81890506857861478       -5.6074923890383186                0           0           0
          84           1   1.4763390000000001        2.1751977923359274       0.88710185655394191       -4.5389518320232352                0           0           0
          85           1  0.85063500000000003        2.9546406578530924       0.18562165608729231       -4.8872312091857353                0           0           0
          86           1  0.83979999999999999        3.6383721443417354       0.21268050022918850       -5.5435592318696854                0           0           0
          87           1   1.1119710000000000        4.4768443069489514       0.66217991208922466       -5.0039369127135824                0           0           0
          88           1  0.92940100000000003       -5.4542490873647891        1.9593453657002433       -5.0988551069953134                0           0           0
          89           1  0.98624599999999996       -4.6149252583875473        2.3564252363753564       -5.6286025148122887                0           0           0
          90           1  0.88377099999999997       -3.8566851493376944        1.4262841076331982       -5.5096023819513595                0           0           0
          91           1   1.4289920000000000       -4.4192622305021434        1.7661020069563236       -4.5663047978045244                0           0           0
          92           1   1.2863240000000000       -2.6727521847966007        1.6170722778607987       -5.4859704849328299                0           0           0
          93           1  0.83280200000000004       -3.2657728305017950        1.8635422580268131       -4.5871735336412254                0           0           0
          94           1  0.91532000000000002       -1.5880765711964306        1.8508137377777123       -5.2045207825705209                0           0           0
          95           1   1.0549850000000001      -0.61755884170904363        1.4266114888379997       -5.3283699669453792                0           0           0
          96           1   1.4844250000000001       0.40677068027914842        2.1876238950064231       -5.4390672933964108                0           0           0
          97           1  0.86414400000000002        1.4764344667090441        1.8107554221588167       -5.3059812667963087                0           0           0
          98           1   1.3125690000000001        2.4427744893473200        2.2800453372454506       -5.1475740626192907                0           0           0
          99           1  0.82318199999999997        2.3790202804456690        1.2569872509014060       -5.6233728648469450                0           0           0
         100           1   1.2526790000000001        3.3993438634990252        1.2347963874797614       -5.3651542691190368                0           0           0
         101           1   1.3715560000000000        4.6943832274550346        1.9433560839853907       -5.2163255614056334                0           0           0
         102           1   1.1018300000000001       -5.2711004578341525        2.9231944839025861       -4.6595959174449302                0           0           0
         103           1   1.0932630000000001       -3.5677870672016452        2.4629311707257404       -5.3430888247176629                0           0           0
         104           1  0.91189900000000002       -4.1206208656876084        2.8846137131522287       -4.5122491679248835                0           0           0
         105           1  0.73728300000000002       -2.6132795796820418        2.6415956529414277       -5.2584622023051413                0           0           0
         106           1  0.79696199999999995       -3.3062726408773910        3.4051105469855880       -5.2501483220695402                0           0           0
         107           1   1.2884510000000000       -1.6775603072319178        2.9530802523371289       -4.9462495276473639                0           0           0
         108           1  0.90628100000000000      -0.72876471102980833        2.3951629969661159       -4.7442100651159027                0           0           0
         109           1   1.2439519999999999      -0.38526341915547313        3.3540791915373518       -5.2005291616440825                0           0           0
         110           1  0.85372000000000003      -0.78006411090181871        2.4253400513324337       -5.7208895573805805                0           0           0
         111           1  0.79320299999999999       0.61324180656150507        3.3015490751612688       -5.5987223391339622                0           0           0
         112           1  0.83657099999999995        1.1742140271823249        2.4693200026173674       -4.6495469544970840                0           0           0
         113           1  0.79898800000000003        2.9608545920171778        3.1889867007034063       -4.7857698635669195                0           0           0
         114           1  0.97961900000000002        3.5957025126315632        2.3811354435895264       -4.7897855389602997                0           0           0
         115           1  0.80490099999999998        4.3400317254267797        2.9617308477437803       -5.0325886367921493                0           0           0
         116           1  0.76785300000000001        5.2754749829700973        2.8440386563277968       -5.1961970416129137                0           0           0
         117           1  0.78729899999999997       -4.9519018409502538        4.4915001430628063       -5.4872666272094355                0           0           0
         118           1  0.86933700000000003       -5.5478146773210701        3.5921423544420570       -5.4416601272627272                0           0           0
         119           1   1.4795579999999999       -4.3732455978343383        3.5607219784521273       -5.4164971278190173                0           0           0
         120           1   1.1486650000000000       -3.1833348111467110        4.3843766791115417       -5.0824827101821732                0           0           0
         121           1  0.75789499999999999       -2.3900726157955390        3.7429504434675867       -4.9432122862608052                0           0           0
         122           1  0.80026200000000003       -2.3200778385477880        4.4441620646871254       -5.6122937747056740                0           0           0
         123           1  0.84546600000000005       -1.5263984093792793        3.9541639540571243       -5.5373243836583645                0           0           0
         124           1  0.74727200000000005       -1.2037423945848236        3.8564919795990633       -4.6767870569947334                0           0           0
         125           1   1.1842509999999999       -1.9068704362567899        4.6014704139843605       -4.6923936398951156                0           0           0
         126           1   1.0372950000000001      -0.65596994529757424        4.5103860801426912       -5.4085154623898344                0           0           0
         127           1  0.75573400000000002       0.25978171385020499        4.1599320663798078       -5.1395689666591036                0           0           0
         128           1  0.90554000000000001        1.2425985010233198        4.0840988993442160       -5.6167419284704305                0           0           0
         129           1  0.73019400000000001        1.8129916894314215        4.2096828686335996       -4.6998611509448436                0           0           0
         130           1   1.1501790000000001        2.1538552237142934        3.5462055796459957       -5.3300954023935665                0           0           0
         131           1   1.0361840000000000        3.0254393907850563        4.2511621591412929       -5.0756616523172555                0           0           0
         132           1  0.78415599999999996        3.9311171945478733        3.9089730898547739       -5.1477683861830652                0           0           0
         133           1  0.84128000000000003        4.6846706543122814        4.1822582619019162       -4.6287081833439787                0           0           0
         134           1   1.3047489999999999        4.8107377839947318        3.6880444917477515       -5.6338470795907956                0           0           0
         135           1  0.87163800000000002       -5.3607732930203236        5.3230070988930329       -5.1977717477308962                0           0           0
         136           1   1.1479109999999999       -4.3635500089487342        4.7504800725658551       -4.6948248410588302                0           0           0
         137           1  0.85967499999999997       -3.6108989403756704        5.3530952941136132       -5.0965217128500306                0           0           0
         138           1  0.80051799999999995       -4.4869851748241389        5.3885329234024617       -5.5119533679268260                0           0           0
         139           1   1.1004989999999999       -2.5951058003614929        5.4364594955067851       -5.4110324225517621                0           0           0
         140           1  0.95438500000000004       -1.5482578639129061        5.6693423707662483       -5.1904495671251691                0           0           0
         141           1  0.98720399999999997      -0.33329584420874259        5.6303096132929760       -5.5497049391611339                0           0           0
         142           1  0.86126300000000000       0.22982685289108673        5.0178788893318256       -4.8421053568371519                0           0           0
         143           1  0.79245800000000000        1.0941158664438628        4.6992486889833440       -4.7899363811357798                0           0           0
         144           1   1.2686580000000001        1.9924756879792618        4.9454975301099928       -5.3290290468386550                0           0           0
         145           1  0.86478800000000000        2.9181895167308216        5.2719907688470826       -4.8581914388873972                0           0           0
         146           1  0.73688299999999995        3.1260391489111807        5.0179124718325010       -5.7058753734707270                0           0           0
         147           1   1.4304490000000001        3.9917123278496813        4.9953262820652959       -4.9117685034353080                0           0           0
         148           1  0.76117100000000004        5.1026555611433562        5.0294474035237062       -5.0215141947981792                0           0           0
         149           1  0.81904200000000005        4.6147410628105749        4.8807541096243732        5.6753092334403430                0           0           0
         150           1  0.74355499999999997       -5.1728965749059679       -5.2326772964706194       -3.7937014826621316                0           0           0
         151           1  0.76271500000000003       -3.8950942213148707       -5.0044558098176068       -3.9559723310473314                0           0           0
         152           1  0.76898400000000000       -2.4453310260807131       -4.7753841512700079       -4.0549693479345628                0           0           0
         153           1   1.0236600000000000       -3.1879192188513681       -5.5607668931569476       -3.5145198997532336                0           0           0
         154           1  0.73077700000000001       -1.4884000509318280       -4.9098281987556041       -3.7558800954172122                0           0           0
         155           1   1.1202880000000000       -2.0115224008718822       -5.6691062427058938       -4.1818462047742120                0           0           0
         156           1  0.76807899999999996       -1.1668478505521476       -5.1572952496386080       -4.4900999045324381                0           0           0
         157           1   1.3321630000000000      -0.46564759490059870       -4.9662283187842062       -3.6728874752988121                0           0           0
         158           1  0.80179999999999996       0.67912210024904329       -4.9373891155450016       -3.9286900489750511                0           0           0
         159           1  0.94373200000000002        1.6341265425282465       -5.0618160011897047       -4.0200275477472029                0           0           0
         160           1  0.95481799999999994        3.1806184997663145       -4.6708096359845630       -4.5089855690717604                0           0           0
         161           1   1.4699640000000000        2.7764860707520125       -5.6386520160528706       -3.8567617639475680                0           0           0
         162           1   1.3309860000000000        4.2536273875954063       -5.0881987786578113       -4.0927727016435043                0           0           0
         163           1   1.1672389999999999        5.5703219343456354       -5.5082492921195829       -4.4613987755655815                0           0           0
         164           1  0.96901499999999996       -5.4404728975316576       -4.4048515968845345       -4.4210352868929368                0           0           0
         165           1   1.1382319999999999       -4.6423429634824238       -4.3903573702948480       -3.6088322229205212                0           0           0
         166           1   1.0295930000000000       -5.6920519324213874       -3.7217759031773450       -3.5811856954443053                0           0           0
         167           1  0.75638000000000005       -4.0875864912497057       -3.5679975950093406       -3.8306790749944719                0           0           0
         168           1   1.4976440000000000       -3.2432782041336012       -4.2035970759690908       -3.6123033234668229                0           0           0
         169           1   1.3677140000000001       -1.7332671664273778       -4.0067958795721452       -4.2360714166779543                0           0           0
         170           1  0.87362600000000001      -0.74153840757101808       -3.9619082572106334       -4.7340435410953559                0           0           0
         171           1  0.77448300000000003      -0.48063676044942749       -3.9228701715139143       -3.6391163132308955                0           0           0
         172           1   1.1426689999999999       0.20614525717854448       -4.1814385221618648       -4.4258678323199909                0           0           0
         173           1   1.6053649999999999        1.3803637283526697       -3.8476927154887139       -3.7739505726098921                0           0           0
         174           1  0.81254700000000002        2.3905270836697259       -4.4073115996459435       -4.0154314304041154                0           0           0
         175           1   1.5251770000000000        2.8569380507621762       -3.4450176923299356       -4.4850478362611863                0           0           0
         176           1  0.90739599999999998        3.9006741676325873       -3.9266319400019780       -4.1844580907773254                0           0           0
         177           1  0.91723800000000000        3.4723822046985724       -3.2950497046030023       -3.4587801495504960                0           0           0
         178           1  0.98055700000000001        4.9379885056899031       -4.1309764068940220       -4.2325680696664438                0           0           0
         179           1   1.4378010000000001       -4.9159673265273884       -3.2704336388351583       -4.4126213387498145                0           0           0