LAMMPS data file via write_data, version 17 Nov 2016, timestep = 0
      
  1500 atoms
      
1 atom types
  -5.7235712129999996        5.7235712129999996      xlo xhi
  -5.7235712129999996        5.7235712129999996      ylo yhi
  -5.7235712129999996        5.7235712129999996      zlo zhi
Masses
      
1 1
      
Pair Coeffs # lj/poly
      
                               1 1.0 1.0 2.025 1.25 0.2
      
Atoms # charge
      
           1           1  0.82965299999999997       -5.5449043951607742       -4.8799478893544208       -5.2647978886046456                0           0           0
           2           1   1.5413479999999999       -4.5773139559831630       -5.2702808738685754       -4.7544767085605146                0           0           0
           3           1  0.86062700000000003       -3.7986281483859434       -4.7712098082643610       -5.4901632812248193                0           0           0
           4           1   1.2325940000000000       -3.1699926031572438       -5.2175033575972671       -4.6531935659448180                0           0           0
           5           1  0.92110899999999996       -2.0784559781118102       -4.9022319010238382       -4.9084085393196171                0           0           0
           6           1   1.5043869999999999       -1.0388444610104237       -4.7550788908150787       -5.4725864265385207                0           0           0
           7           1  0.88103100000000001      -0.20367205527899568       -5.1737848653603313       -4.7410475051642225                0           0           0
           8           1  0.92227999999999999       0.28132526150053572       -4.6686588771920174       -5.4688975097696702                0           0           0
           9           1   1.5129459999999999       0.93328696168727099       -5.5201657797747989       -4.9778685885873459                0           0           0
          10           1  0.87097899999999995        2.1144407754000927       -5.5810286313948678       -4.7737176584575041                0           0           0
          11           1  0.82823300000000000        1.9380288898429718       -5.3955590883138402       -5.6973604802884985                0           0           0
          12           1   1.3333429999999999        3.0331858393377154       -5.3255182630306557       -5.5306730323210198                0           0           0
          13           1  0.81986499999999995        4.1245010933664794       -5.3069775342961911       -5.3197053374212588                0           0           0
          14           1  0.74748000000000003        3.5246918767210342       -5.5417420404414077       -4.6432789703353921                0           0           0
          15           1  0.86770400000000003        4.9205971114645664       -4.8178608166380892       -4.9793986870508240                0           0           0
          16           1  0.73948999999999998        4.6912956140529740       -5.6959971031453787       -4.7966759715692131                0           0           0
          17           1   1.1174949999999999       -4.8015343536449500       -4.1483808645293685       -5.5197085607162322                0           0           0
          18           1   1.0167780000000000       -3.9984971008195433       -4.1425236410337272       -4.6460001130209108                0           0           0
          19           1   1.0699300000000000       -2.8265252317807898       -4.0590977855097208       -4.8352863124950511                0           0           0
          20           1  0.76943799999999996       -1.9484859991077861       -4.0840610526775034       -5.3129225794876733                0           0           0
          21           1   1.0829869999999999      -0.25578959876233576       -3.7672628505399404       -5.6914528332898300                0           0           0
          22           1   1.3859269999999999       0.96431465877121614       -3.6925819268514881       -5.3552782052242751                0           0           0
          23           1  0.77240699999999995        1.1020952722007182       -4.5053108056788691       -4.6430228397834430                0           0           0
          24           1   1.1917739999999999        2.0305504214583223       -4.5404076895457868       -5.0011746739145826                0           0           0
          25           1  0.76583000000000001        1.8025511692560965       -3.5400340883300623       -4.7331732131776727                0           0           0
          26           1  0.97774899999999998        2.1599515357803867       -3.5650351758310919       -5.6176092868967142                0           0           0
          27           1  0.83108000000000004        2.9347048000291487       -4.1986982319478763       -5.3735122940253266                0           0           0
          28           1   1.2215430000000000        3.9893248559364416       -4.2749446688873558       -5.2336158816066716                0           0           0
          29           1   1.3806490000000000        5.3899397634478792       -3.8302588651401286       -5.3259404133399988                0           0           0
          30           1   1.0400879999999999       -5.1692224564380354       -2.9701441239056714       -5.6261074215445541                0           0           0
          31           1  0.77126099999999997       -4.2844367668129983       -3.2881094555904156       -5.2654406633544593                0           0           0
          32           1  0.92384800000000000       -4.2804107277288148       -2.3931286469205832       -4.9333771355294376                0           0           0
          33           1  0.88862900000000000       -2.3166046151253785       -3.1296391864840105       -4.8790103505902662                0           0           0
          34           1  0.86158199999999996       -3.0696773826945574       -2.8360199465850546       -5.5340241234244054                0           0           0
          35           1   1.1209890000000000       -1.3319542771976343       -3.3132142085916860       -5.3219971009544214                0           0           0
          36           1   1.2420370000000001      -0.20912598267824567       -2.9469633373863768       -4.7325118109371385                0           0           0
          37           1  0.88274100000000000       -1.0388820362570534       -2.3140687775379614       -5.1638573958929124                0           0           0
          38           1   1.0668899999999999       0.69500103779409095       -2.4519550118314291       -5.4161552309660275                0           0           0
          39           1   1.1892499999999999        1.8660705597460758       -2.5791079872151541       -5.0899194142044921                0           0           0
          40           1  0.78319600000000000        2.8127754804631078       -2.8153852773541832       -5.3709094974866716                0           0           0
          41           1  0.77194799999999997        2.7168779687269691       -2.2989819220620893       -4.5393829343788079                0           0           0
          42           1  0.74873199999999995        3.6783879013732577       -3.3195506673149682       -5.1718976814184030                0           0           0
          43           1   1.0263439999999999        4.5224998926852606       -3.2082881721255836       -4.7452916012147393                0           0           0
          44           1  0.81308199999999997        4.5548629172341109       -2.4883578408130704       -5.4126809079482117                0           0           0
          45           1   1.1161060000000000        3.6392237058757271       -2.3717142215906115       -4.9676798114354508                0           0           0
          46           1   1.2125560000000000        5.4700135353729440       -2.4274514132046239       -4.9134360080346031                0           0           0
          47           1  0.74192100000000005       -5.0015207532266954       -2.0570464192509723       -5.3657079449934155                0           0           0
          48           1  0.91800800000000005       -4.1472608501193378       -1.5553583667179183       -5.5042143051369417                0           0           0
          49           1  0.83222700000000005       -3.2327790472849993       -1.9485039155668797       -5.2782267577623241                0           0           0
          50           1   1.0095200000000000       -2.5303178329257272       -1.2197367139833153       -4.8834975637510771                0           0           0
          51           1   1.4893410000000000       -2.1371196925857725       -2.1870694274957407       -5.5798528134848855                0           0           0
          52           1   1.2179240000000000       -1.3403521637642566       -1.3149764369017900       -4.7721630031377114                0           0           0
          53           1   1.0644769999999999      -0.21765200152459574       -1.6491837229411503       -5.2237365003871972                0           0           0
          54           1   1.3780330000000001       0.96865582322453303       -1.2764307228437159       -5.0286560861371461                0           0           0
          55           1   1.0451729999999999        2.1527273696115659       -1.4325650617103616       -4.8231617176504864                0           0           0
          56           1  0.79520100000000005        3.6404345833980987       -1.3787435488644046       -5.2490759491865129                0           0           0
          57           1   1.0204660000000001        4.4257264486432444       -1.6003374410169355       -4.5988459810788740                0           0           0
          58           1  0.80856499999999998        5.3299966640588128       -1.3841375538593512       -5.0121346746826880                0           0           0
          59           1   1.3538969999999999       -5.0615224596580148       -1.0823292805439699       -4.9882648383212667                0           0           0
          60           1  0.75854699999999997       -4.0646105600237012      -0.68126576222426838       -5.1859572853404217                0           0           0
          61           1  0.73175199999999996       -2.4358123611359059      -0.42854874011465327       -5.3667979771755396                0           0           0
          62           1   1.0328729999999999       -3.2274528071624657      -0.31886853695219664       -4.8605739222916666                0           0           0
          63           1  0.75083299999999997       -1.6076985690019701      -0.29535862086295062       -5.2679625630463178                0           0           0
          64           1  0.82179500000000005       -1.8917859646824997       -1.0735283042507984       -5.6605407087713893                0           0           0
          65           1  0.90665300000000004      -1.02143957496325655E-002 -0.65325734703605498       -4.8691511913771164                0           0           0
          66           1  0.88653700000000002      -0.93748746362716329      -0.29902998806603520       -4.6182082110371141                0           0           0
          67           1   1.1960150000000001       0.61388233883788690      -5.72498733609165811E-002  -5.5097012363829876                0           0           0
          68           1   1.0855290000000000        1.7598855984772186      -0.25936212917872226       -4.9770375476248789                0           0           0
          69           1  0.97821599999999997        2.8741928563682020      -0.73988111411648738       -5.2595014228743846                0           0           0
          70           1   1.4363210000000000        3.8764006137253464      -0.47256927392144732       -4.6863482967021390                0           0           0
          71           1   1.1656560000000000        5.2162338800142134      -0.36121521267250589       -4.9092453601108978                0           0           0
          72           1   1.0241950000000000       -5.1397847816145346       5.56045282230828164E-002  -5.4435578083164122                0           0           0
          73           1  0.83424600000000004       -4.6105219443781174       0.76600286393745698       -4.9662096345272602                0           0           0
          74           1   1.2242780000000000       -5.7192195084295507       0.90055883656936775       -4.8405006750361279                0           0           0
          75           1   1.2615920000000000       -3.9371743717169738       0.26449854961724029       -5.6895938697592880                0           0           0
          76           1  0.96946900000000003       -2.7380518938911838       0.42576273212699167       -5.5132656492501848                0           0           0
          77           1   1.0105480000000000       -3.3855887934383513       0.85972450170300263       -4.7511886678727473                0           0           0
          78           1   1.1696240000000000       -1.6406974970741066       0.71682201396950695       -5.3721599162858595                0           0           0
          79           1  0.91265600000000002       -2.3036502817442188        1.0191855860187902       -4.5789532488109854                0           0           0
          80           1  0.77751099999999995      -0.66794013958686893       0.45619452568441421       -5.3575432153101632                0           0           0
          81           1  0.88239800000000002       0.43234790056694639        1.0349337250276136       -5.3370496270406766                0           0           0
          82           1  0.79924200000000001        1.0768350585923567       0.44443326707827691       -4.6726692664364142                0           0           0
          83           1   1.1011640000000000        1.4531742573757338       0.81846209814040805       -5.6075373139440794                0           0           0
          84           1   1.4763390000000001        2.1762630403112846       0.88639716973684468       -4.5389767848870450                0           0           0
          85           1  0.85063500000000003        2.9545782324376901       0.18227878012542575       -4.8858268050499500                0           0           0
          86           1  0.83979999999999999        3.6390290610245657       0.20969615244366491       -5.5412631522585629                0           0           0
          87           1   1.1119710000000000        4.4763247258551218       0.66042480238850576       -5.0037152614372795                0           0           0
          88           1  0.92940100000000003       -5.4545747352112919        1.9585873076745948       -5.0994205136711788                0           0           0
          89           1  0.98624599999999996       -4.6152812401330934        2.3569400815839412       -5.6282778782502110                0           0           0
          90           1  0.88377099999999997       -3.8566457961726082        1.4262057512780739       -5.5098562729170979                0           0           0
          91           1   1.4289920000000000       -4.4191788902664531        1.7658104691040277       -4.5665931530532866                0           0           0
          92           1   1.2863240000000000       -2.6724221458101542        1.6175093380283245       -5.4864793713798132                0           0           0
          93           1  0.83280200000000004       -3.2653966909530001        1.8639888058825660       -4.5875195498171211                0           0           0
          94           1  0.91532000000000002       -1.5875830066807834        1.8512590257320438       -5.2048405775127549                0           0           0
          95           1   1.0549850000000001      -0.61723677323596515        1.4265647140714508       -5.3289200706026305                0           0           0
          96           1   1.4844250000000001       0.40701993669772651        2.1878114408682929       -5.4394675708920976                0           0           0
          97           1  0.86414400000000002        1.4766702088991721        1.8107819470812991       -5.3067362811471908                0           0           0
          98           1   1.3125690000000001        2.4430324834387527        2.2800086099077816       -5.1478012884069404                0           0           0
          99           1  0.82318199999999997        2.3796112584670208        1.2561560997210250       -5.6236597929053076                0           0           0
         100           1   1.2526790000000001        3.3996963336625985        1.2329856032894524       -5.3656768838275770                0           0           0
         101           1   1.3715560000000000        4.6940836463932580        1.9426549930317076       -5.2161414928172851                0           0           0
         102           1   1.1018300000000001       -5.2710113258846647        2.9226415135245585       -4.6601105807658865                0           0           0
         103           1   1.0932630000000001       -3.5679134381999398        2.4629598060057241       -5.3435110253570981                0           0           0
         104           1  0.91189900000000002       -4.1206839857099382        2.8844826496451397       -4.5126867597087603                0           0           0
         105           1  0.73728300000000002       -2.6133129395973107        2.6419956462816270       -5.2591352558406657                0           0           0
         106           1  0.79696199999999995       -3.3064983695223660        3.4051485262598131       -5.2504244002170495                0           0           0
         107           1   1.2884510000000000       -1.6776649887277104        2.9537752872975478       -4.9465911533258753                0           0           0
         108           1  0.90628100000000000      -0.72888896042003282        2.3954068131792621       -4.7446074321090324                0           0           0
         109           1   1.2439519999999999      -0.38566354351191201        3.3535973946243480       -5.2018608948814258                0           0           0
         110           1  0.85372000000000003      -0.77993914580376433        2.4250852176714464       -5.7214256414597804                0           0           0
         111           1  0.79320299999999999       0.61311368394148236        3.3015048666324613       -5.6000527435545626                0           0           0
         112           1  0.83657099999999995        1.1746658694061090        2.4693748997452865       -4.6497942970294837                0           0           0
         113           1  0.79898800000000003        2.9610735469142107        3.1891364021886055       -4.7864498695950761                0           0           0
         114           1  0.97961900000000002        3.5961097434103166        2.3808906213842906       -4.7896356569660599                0           0           0
         115           1  0.80490099999999998        4.3401417405962324        2.9618224468674370       -5.0334856034628785                0           0           0
         116           1  0.76785300000000001        5.2748122473983976        2.8436559854279437       -5.1964740029794978                0           0           0
         117           1  0.78729899999999997       -4.9519529358504020        4.4937661501358921       -5.4864520455602399                0           0           0
         118           1  0.86933700000000003       -5.5476993517763660        3.5918578228996143       -5.4417846443530937                0           0           0
         119           1   1.4795579999999999       -4.3735117880080594        3.5616856994177883       -5.4163697105447097                0           0           0
         120           1   1.1486650000000000       -3.1844963761103542        4.3845141200761102       -5.0827742464813976                0           0           0
         121           1  0.75789499999999999       -2.3914483859028275        3.7425684786554054       -4.9439271447412114                0           0           0
         122           1  0.80026200000000003       -2.3213672285395934        4.4445402517542565       -5.6133232021033939                0           0           0
         123           1  0.84546600000000005       -1.5272854170138457        3.9548031892109403       -5.5382219862267359                0           0           0
         124           1  0.74727200000000005       -1.2040051103176079        3.8578703589972854       -4.6776655941072169                0           0           0
         125           1   1.1842509999999999       -1.9092314213948676        4.6013707886612742       -4.6934803661214746                0           0           0
         126           1   1.0372950000000001      -0.65558346761582253        4.5095435838148124       -5.4104812445535115                0           0           0
         127           1  0.75573400000000002       0.26036860136608730        4.1575820516461413       -5.1428134517291495                0           0           0
         128           1  0.90554000000000001        1.2419516346100208        4.0836698585803894       -5.6184465240897135                0           0           0
         129           1  0.73019400000000001        1.8120709999535549        4.2115309941659387       -4.6966778474301698                0           0           0
         130           1   1.1501790000000001        2.1531067888754238        3.5470447105199927       -5.3295482979243900                0           0           0
         131           1   1.0361840000000000        3.0269122428193143        4.2492954306635244       -5.0780446385046210                0           0           0
         132           1  0.78415599999999996        3.9321541046840860        3.9073519005430448       -5.1488871046374083                0           0           0
         133           1  0.84128000000000003        4.6851888567644622        4.1808828421995745       -4.6297444105567624                0           0           0
         134           1   1.3047489999999999        4.8114383400221179        3.6878972360331748       -5.6351323643672346                0           0           0
         135           1  0.87163800000000002       -5.3635269548443425        5.3253553514311278       -5.1931502046202391                0           0           0
         136           1   1.1479109999999999       -4.3644611116364240        4.7514994279517868       -4.6938836449489969                0           0           0
         137           1  0.85967499999999997       -3.6122011073630880        5.3533701082377227       -5.0964345981480088                0           0           0
         138           1  0.80051799999999995       -4.4896367552967575        5.3892780510614351       -5.5103245328066439                0           0           0
         139           1   1.1004989999999999       -2.5971895236889826        5.4366828752729415       -5.4115478318230448                0           0           0
         140           1  0.95438500000000004       -1.5513238969273608        5.6712489065325649       -5.1919761971472731                0           0           0
         141           1  0.98720399999999997      -0.33371751088100421        5.6299474961599660       -5.5517760785537069                0           0           0
         142           1  0.86126300000000000       0.22631675083026970        5.0132118838268820       -4.8426423821287301                0           0           0
         143           1  0.79245800000000000        1.0918915664481172        4.6975436512539872       -4.8005481336996665                0           0           0
         144           1   1.2686580000000001        1.9935236833646082        4.9427386975047352       -5.3307461132891181                0           0           0
         145           1  0.86478800000000000        2.9194050338969557        5.2692045753485779       -4.8618362220196119                0           0           0
         146           1  0.73688299999999995        3.1265883481364423        5.0168649431577403       -5.7097242099076206                0           0           0
         147           1   1.4304490000000001        3.9931217646803105        4.9939490297057141       -4.9131946764742169                0           0           0
         148           1  0.76117100000000004        5.1024439932405894        5.0297971906337970       -5.0211203592280418                0           0           0
         149           1  0.81904200000000005        4.6152185695381185        4.8804204254284738        5.6740729533766494                0           0           0
         150           1  0.74355499999999997       -5.1793873223575453       -5.2296440827207844       -3.7820666907650038                0           0           0
         151           1  0.76271500000000003       -3.8953502097240635       -5.0050239680716659       -3.9552523325159652                0           0           0
         152           1  0.76898400000000000       -2.4467088594046364       -4.7743254216539270       -4.0549576646089633                0           0           0
         153           1   1.0236600000000000       -3.1880763554640961       -5.5611713318807308       -3.5150119892318452                0           0           0
         154           1  0.73077700000000001       -1.4921815596842603       -4.9071830910035406       -3.7595087702250218                0           0           0
         155           1   1.1202880000000000       -2.0147075391816700       -5.6689861977778691       -4.1833915108554853                0           0           0
         156           1  0.76807899999999996       -1.1700902131218474       -5.1584974576471367       -4.4919760369262809                0           0           0
         157           1   1.3321630000000000      -0.46926042379500554       -4.9669439258120978       -3.6760694029667582                0           0           0
         158           1  0.80179999999999996       0.67193452662606568       -4.9368213058464638       -3.9317336702727399                0           0           0
         159           1  0.94373200000000002        1.6256088498626697       -5.0665684477197441       -4.0307900363313776                0           0           0
         160           1  0.95481799999999994        3.1764678328506069       -4.6759407860201829       -4.5075540848625391                0           0           0
         161           1   1.4699640000000000        2.7724841054372416       -5.6456178458364361       -3.8600563272358550                0           0           0
         162           1   1.3309860000000000        4.2495019395329905       -5.0909949421989111       -4.0894523733062389                0           0           0
         163           1   1.1672389999999999        5.5680497092791974       -5.5020369977041135       -4.4556550205661249                0           0           0
         164           1  0.96901499999999996       -5.4417028052171244       -4.4023820240593698       -4.4196552779861564                0           0           0
         165           1   1.1382319999999999       -4.6419076707616771       -4.3896030624319176       -3.6096766939387632                0           0           0
         166           1   1.0295930000000000       -5.6942334350839854       -3.7214733118847412       -3.5822249402487145                0           0           0
         167           1  0.75638000000000005       -4.0899155624872945       -3.5658820664442028       -3.8325775934578998                0           0           0
         168           1   1.4976440000000000       -3.2450052846389106       -4.2024309132750703       -3.6130263474664033                0           0           0
         169           1   1.3677140000000001       -1.7367557060661132       -4.0029866192227193       -4.2357144425094067                0           0           0
         170           1  0.87362600000000001      -0.74648842195912213       -3.9597345404035829       -4.7348238373316889                0           0           0
         171           1  0.77448300000000003      -0.48529264955676954       -3.9225030472000522       -3.6415678961046631                0           0           0
         172           1   1.1426689999999999       0.20119687546391152       -4.1803950536011598       -4.4301585983230183                0           0           0
         173           1   1.6053649999999999        1.3743893387635087       -3.8491020079907523       -3.7809681552857386                0           0           0
         174           1  0.81254700000000002        2.3839534122339820       -4.4098539371111602       -4.0209203595078753                0           0           0
         175           1   1.5251770000000000        2.8574937600904011       -3.4520395339937342       -4.4874409929330739                0           0           0
         176           1  0.90739599999999998        3.8971697306463930       -3.9368379178435013       -4.1717853698175427                0           0           0
         177           1  0.91723800000000000        3.4621648980708244       -3.3071740558749889       -3.4514931654933747                0           0           0
         178           1  0.98055700000000001        4.9349447213404272       -4.1357302921111989       -4.2291007967612675                0           0           0
         179           1   1.4378010000000001       -4.9222153537328142       -3.2644740584100860       -4.4093258841004825                0           0           0