LAMMPS data file via write_data, version 17 Nov 2016, timestep = 0
      
  1500 atoms
      
1 atom types
  -5.7235712129999996        5.7235712129999996      xlo xhi
  -5.7235712129999996        5.7235712129999996      ylo yhi
  -5.7235712129999996        5.7235712129999996      zlo zhi
Masses
      
1 1
      
Pair Coeffs # lj/poly
      
                               1 1.0 1.0 2.025 1.25 0.2
      
Atoms # charge
      
           1           1  0.82965299999999997       -5.5484487141300614       -4.8785209671151524       -5.2657568303948423                0           0           0
           2           1   1.5413479999999999       -4.5823119021848138       -5.2677160006092869       -4.7571143786253733                0           0           0
           3           1  0.86062700000000003       -3.8071226848070072       -4.7633259943816011       -5.4932778304435885                0           0           0
           4           1   1.2325940000000000       -3.1788096287739256       -5.2256691267155606       -4.6635707780252682                0           0           0
           5           1  0.92110899999999996       -2.0866263741678801       -4.8907666876814462       -4.8986882119725612                0           0           0
           6           1   1.5043869999999999       -1.0425722304724863       -4.7173935134232678       -5.4655604651977434                0           0           0
           7           1  0.88103100000000001      -0.20765249493728977       -5.1779881683639584       -4.7494083840540142                0           0           0
           8           1  0.92227999999999999       0.29119566863151825       -4.6644058043140433       -5.4656570750690117                0           0           0
           9           1   1.5129459999999999       0.93611924655412793       -5.5166067106190502       -4.9736823829672998                0           0           0
          10           1  0.87097899999999995        2.1174877964195282       -5.5713070955753983       -4.7670823311592079                0           0           0
          11           1  0.82823300000000000        1.9393014378070781       -5.3889272314308183       -5.6917085049235761                0           0           0
          12           1   1.3333429999999999        3.0378022704520085       -5.3159833487089108       -5.5220579990813246                0           0           0
          13           1  0.81986499999999995        4.1274866139494826       -5.3008444908578412       -5.3197630389562285                0           0           0
          14           1  0.74748000000000003        3.5272540193343147       -5.5406177186860601       -4.6383910780420248                0           0           0
          15           1  0.86770400000000003        4.9211658707515245       -4.8162771787546736       -4.9787995535970015                0           0           0
          16           1  0.73948999999999998        4.6900176875452093       -5.6949962145828108       -4.7961786433185694                0           0           0
          17           1   1.1174949999999999       -4.8092934606325173       -4.1487780059075048       -5.5317881834140463                0           0           0
          18           1   1.0167780000000000       -4.0248574148487535       -4.1308758752004087       -4.6502332152028210                0           0           0
          19           1   1.0699300000000000       -2.8728814412564549       -4.0588311001635660       -4.8567413822975798                0           0           0
          20           1  0.76943799999999996       -1.9743116475863358       -4.0775168011955358       -5.3010775177759681                0           0           0
          21           1   1.0829869999999999      -0.23738201983057294       -3.7546223044947391       -5.6620734691108048                0           0           0
          22           1   1.3859269999999999       0.97930262983041150       -3.6853417505136679       -5.3575484697352218                0           0           0
          23           1  0.77240699999999995        1.0836813824244826       -4.4962965270832260       -4.6487883229014431                0           0           0
          24           1   1.1917739999999999        2.0242389680482891       -4.5347216492417708       -4.9983915820929541                0           0           0
          25           1  0.76583000000000001        1.8111664338339208       -3.5344649660019347       -4.7329390748919797                0           0           0
          26           1  0.97774899999999998        2.1660584113751602       -3.5636807084434579       -5.6199784744748769                0           0           0
          27           1  0.83108000000000004        2.9335113517830642       -4.1980891051219755       -5.3728003493866074                0           0           0
          28           1   1.2215430000000000        3.9892921121653551       -4.2695953816381369       -5.2301834360252766                0           0           0
          29           1   1.3806490000000000        5.3872456758497069       -3.8278890634411997       -5.3275300781655623                0           0           0
          30           1   1.0400879999999999       -5.1714887906467979       -2.9688864321164390       -5.6311840967475097                0           0           0
          31           1  0.77126099999999997       -4.2917967422916679       -3.2862345993786377       -5.2667289483166133                0           0           0
          32           1  0.92384800000000000       -4.2980091218695424       -2.3848340848915894       -4.9391243187054750                0           0           0
          33           1  0.88862900000000000       -2.3291787100254489       -3.1322667359716156       -4.8736049028631614                0           0           0
          34           1  0.86158199999999996       -3.0718318563198359       -2.8359909042520544       -5.5425676581490011                0           0           0
          35           1   1.1209890000000000       -1.3105934314966703       -3.3541434404538291       -5.2634948216841773                0           0           0
          36           1   1.2420370000000001      -0.20256314821459576       -2.9253273293528914       -4.7202269262126331                0           0           0
          37           1  0.88274100000000000       -1.0397902207495209       -2.3273114224231102       -5.1677451833440635                0           0           0
          38           1   1.0668899999999999       0.70264769387922854       -2.4485342583043499       -5.4166167994070813                0           0           0
          39           1   1.1892499999999999        1.8736208646789425       -2.5763568045321583       -5.0895290398387090                0           0           0
          40           1  0.78319600000000000        2.8206948215667982       -2.8162244880666751       -5.3733630191178161                0           0           0
          41           1  0.77194799999999997        2.7220854433183330       -2.2982614188487487       -4.5339117530840785                0           0           0
          42           1  0.74873199999999995        3.6758093270254371       -3.3129229674612914       -5.1786245331695140                0           0           0
          43           1   1.0263439999999999        4.5187449240567084       -3.2076041590681328       -4.7478142072628016                0           0           0
          44           1  0.81308199999999997        4.5541076702238783       -2.4901053691522343       -5.4182681797850005                0           0           0
          45           1   1.1161060000000000        3.6428187556359930       -2.3665720369633494       -4.9662668137471613                0           0           0
          46           1   1.2125560000000000        5.4657789109686004       -2.4230955906133542       -4.9161434418771153                0           0           0
          47           1  0.74192100000000005       -5.0463194357253744       -2.0634008407288151       -5.3308077981893254                0           0           0
          48           1  0.91800800000000005       -4.1427180686516056       -1.5499420906648025       -5.5032237381217470                0           0           0
          49           1  0.83222700000000005       -3.2282263557369979       -1.9494947746411535       -5.2763827640856267                0           0           0
          50           1   1.0095200000000000       -2.5295587801472994       -1.2213895262861101       -4.8881480936595327                0           0           0
          51           1   1.4893410000000000       -2.1336105548230484       -2.1923944256041108       -5.5796207538056048                0           0           0
          52           1   1.2179240000000000       -1.3406217595651171       -1.3191465961354067       -4.7714777567501230                0           0           0
          53           1   1.0644769999999999      -0.21653473920659927       -1.6528519214095505       -5.2175358805416483                0           0           0
          54           1   1.3780330000000001       0.97116164359198098       -1.2745307329762712       -5.0291304102326313                0           0           0
          55           1   1.0451729999999999        2.1546294668817279       -1.4306391825844598       -4.8208037228814673                0           0           0
          56           1  0.79520100000000005        3.6399955671147097       -1.3749217044013733       -5.2479124703464022                0           0           0
          57           1   1.0204660000000001        4.4301208427666534       -1.5934031092258643       -4.6007422718256352                0           0           0
          58           1  0.80856499999999998        5.3332051880065769       -1.3798408732731806       -5.0186121778376140                0           0           0
          59           1   1.3538969999999999       -5.0583436277042386       -1.0777839940285814       -4.9881351643670993                0           0           0
          60           1  0.75854699999999997       -4.0639647356751709      -0.67721566958552604       -5.1864165648022560                0           0           0
          61           1  0.73175199999999996       -2.4350329773165869      -0.42935324063418712       -5.3689918377996824                0           0           0
          62           1   1.0328729999999999       -3.2267023225911573      -0.31928408461274493       -4.8617281058003501                0           0           0
          63           1  0.75083299999999997       -1.6071062582548716      -0.29506501053223566       -5.2709355139155107                0           0           0
          64           1  0.82179500000000005       -1.8888696901532827       -1.0759878619830037       -5.6618257694789333                0           0           0
          65           1  0.90665300000000004      -9.40363540192112879E-003 -0.65525516445170062       -4.8682059911499405                0           0           0
          66           1  0.88653700000000002      -0.93769433090874976      -0.30140432957911756       -4.6193267096905934                0           0           0
          67           1   1.1960150000000001       0.61285042034645176      -5.83463242507882285E-002  -5.5104450800805402                0           0           0
          68           1   1.0855290000000000        1.7612144758452981      -0.25820202731091690       -4.9768349403844221                0           0           0
          69           1  0.97821599999999997        2.8740850253694532      -0.73771832592389952       -5.2584547209128640                0           0           0
          70           1   1.4363210000000000        3.8765332263205554      -0.46903653372494691       -4.6864590975414746                0           0           0
          71           1   1.1656560000000000        5.2165226641825697      -0.35841569906133053       -4.9084679095101071                0           0           0
          72           1   1.0241950000000000       -5.1405932189329189       5.81336029705736834E-002  -5.4451409349470170                0           0           0
          73           1  0.83424600000000004       -4.6103316748624152       0.76715093530320910       -4.9667206067966392                0           0           0
          74           1   1.2242780000000000       -5.7188751034649190       0.90290241566072460       -4.8409307705418492                0           0           0
          75           1   1.2615920000000000       -3.9364478568229879       0.26585416608887602       -5.6899339056806246                0           0           0
          76           1  0.96946900000000003       -2.7362859477533643       0.42606502928124801       -5.5138642938507507                0           0           0
          77           1   1.0105480000000000       -3.3826060246041476       0.86121661175100517       -4.7521565935722929                0           0           0
          78           1   1.1696240000000000       -1.6391141034395336       0.71743733808614429       -5.3758240000589570                0           0           0
          79           1  0.91265600000000002       -2.2997945498912409        1.0240140312443149       -4.5821496822317274                0           0           0
          80           1  0.77751099999999995      -0.66668510551920779       0.45470794611809673       -5.3568865404417236                0           0           0
          81           1  0.88239800000000002       0.43183098610629589        1.0316792033171946       -5.3364615960172648                0           0           0
          82           1  0.79924200000000001        1.0762665524440376       0.44197270041008618       -4.6738026365689764                0           0           0
          83           1   1.1011640000000000        1.4526536602770541       0.81764635615856207       -5.6076922038121904                0           0           0
          84           1   1.4763390000000001        2.1774960344842658       0.88682135842665755       -4.5392389840949683                0           0           0
          85           1  0.85063500000000003        2.9562598568835377       0.18470626531582912       -4.8863782037731918                0           0           0
          86           1  0.83979999999999999        3.6395890568421656       0.21100079016794560       -5.5429075166007138                0           0           0
          87           1   1.1119710000000000        4.4769059617859597       0.66286457614109029       -5.0038776389750179                0           0           0
          88           1  0.92940100000000003       -5.4547873916919709        1.9606309941787154       -5.1010539728689288                0           0           0
          89           1  0.98624599999999996       -4.6151954242855897        2.3584668136133189       -5.6298150030095018                0           0           0
          90           1  0.88377099999999997       -3.8555690852886872        1.4256602582345286       -5.5108882141250817                0           0           0
          91           1   1.4289920000000000       -4.4186406492906176        1.7676692100088616       -4.5685692137750342                0           0           0
          92           1   1.2863240000000000       -2.6688398354866170        1.6202754253637606       -5.4914779338943136                0           0           0
          93           1  0.83280200000000004       -3.2634417968153384        1.8648403668962912       -4.5904496918149942                0           0           0
          94           1  0.91532000000000002       -1.5864275692180358        1.8526994130584615       -5.2082655682866337                0           0           0
          95           1   1.0549850000000001      -0.61826454888951421        1.4256238320255195       -5.3303016658233906                0           0           0
          96           1   1.4844250000000001       0.40680094553707669        2.1831987989740336       -5.4333677624925167                0           0           0
          97           1  0.86414400000000002        1.4781299295758696        1.8074972248389063       -5.3067129649838911                0           0           0
          98           1   1.3125690000000001        2.4433517719444637        2.2781999071228931       -5.1468511256700022                0           0           0
          99           1  0.82318199999999997        2.3788302750243524        1.2571292718649092       -5.6271784486777880                0           0           0
         100           1   1.2526790000000001        3.3990531656885548        1.2333958315481208       -5.3650771577410872                0           0           0
         101           1   1.3715560000000000        4.6940434429580371        1.9455161779111059       -5.2176417665599040                0           0           0
         102           1   1.1018300000000001       -5.2698594190826196        2.9244712471717378       -4.6615868737340183                0           0           0
         103           1   1.0932630000000001       -3.5666701827943474        2.4619362591463396       -5.3464180926337601                0           0           0
         104           1  0.91189900000000002       -4.1184560342941161        2.8864200209859341       -4.5160812118514864                0           0           0
         105           1  0.73728300000000002       -2.6102047770649359        2.6430169219192496       -5.2624747252974187                0           0           0
         106           1  0.79696199999999995       -3.3087047375679450        3.4034844362237333       -5.2546253021533413                0           0           0
         107           1   1.2884510000000000       -1.6735244860474960        2.9538610870609308       -4.9497769219393586                0           0           0
         108           1  0.90628100000000000      -0.72649348238285327        2.3934707752245732       -4.7419296926370960                0           0           0
         109           1   1.2439519999999999      -0.38322624802831484        3.3537527014630353       -5.1891336684952751                0           0           0
         110           1  0.85372000000000003      -0.79067996200926949        2.4269554615620770       -5.7175224848107069                0           0           0
         111           1  0.79320299999999999       0.60958426347808192        3.2931397593590024       -5.5590879736082277                0           0           0
         112           1  0.83657099999999995        1.1786320777960055        2.4629368480929408       -4.6488707854626341                0           0           0
         113           1  0.79898800000000003        2.9593284644002882        3.1888657591211853       -4.7823308716476953                0           0           0
         114           1  0.97961900000000002        3.5966538663005263        2.3815168892948542       -4.7892428569559300                0           0           0
         115           1  0.80490099999999998        4.3403363788264127        2.9637759416010407       -5.0334127247214973                0           0           0
         116           1  0.76785300000000001        5.2759495286824425        2.8456778987788756       -5.1974903501178433                0           0           0
         117           1  0.78729899999999997       -4.9501062444752311        4.4963838780193601       -5.4850961938000813                0           0           0
         118           1  0.86933700000000003       -5.5473049486414947        3.5935893854454708       -5.4430023524251290                0           0           0
         119           1   1.4795579999999999       -4.3737154140523096        3.5627817237435089       -5.4201541346122264                0           0           0
         120           1   1.1486650000000000       -3.1686140051247200        4.3804090656516195       -5.0937379743893958                0           0           0
         121           1  0.75789499999999999       -2.3824464765147861        3.7397713470941909       -4.9414659307858990                0           0           0
         122           1  0.80026200000000003       -2.3018066579197569        4.4587308643625221       -5.6345683941568510                0           0           0
         123           1  0.84546600000000005       -1.5151836179161968        3.9640713577185167       -5.5372661738355191                0           0           0
         124           1  0.74727200000000005       -1.1996843672080262        3.8586107579040654       -4.6745889845740516                0           0           0
         125           1   1.1842509999999999       -1.9054903157951659        4.6015895070720756       -4.7011696881314986                0           0           0
         126           1   1.0372950000000001      -0.63791459150341900        4.5060000960047084       -5.4099863551801031                0           0           0
         127           1  0.75573400000000002       0.28287532873389409        4.1536510255529286       -5.1190330604720362                0           0           0
         128           1  0.90554000000000001        1.2319367047808747        4.0969141203704531       -5.5697816412786887                0           0           0
         129           1  0.73019400000000001        1.8167316898094441        4.2085977253433811       -4.6920715389228818                0           0           0
         130           1   1.1501790000000001        2.1515383310816301        3.5473514858611495       -5.3260976309726500                0           0           0
         131           1   1.0361840000000000        3.0256953310893788        4.2498439530758372       -5.0728188356105077                0           0           0
         132           1  0.78415599999999996        3.9323458820519441        3.9115918534613687       -5.1480311066152007                0           0           0
         133           1  0.84128000000000003        4.6865427799640891        4.1848247546762281       -4.6288638216105058                0           0           0
         134           1   1.3047489999999999        4.8118624871337534        3.6908013790346264       -5.6339975716566766                0           0           0
         135           1  0.87163800000000002       -5.3634103679956064        5.3276791684733684       -5.1954549023588612                0           0           0
         136           1   1.1479109999999999       -4.3578894280158496        4.7488300449316565       -4.6947347951575047                0           0           0
         137           1  0.85967499999999997       -3.6020993088289570        5.3402405755476288       -5.1017950737228377                0           0           0
         138           1  0.80051799999999995       -4.4872958883572887        5.3879217711913796       -5.5084314100208802                0           0           0
         139           1   1.1004989999999999       -2.5830000318978334        5.4395418138707043       -5.4186045904129037                0           0           0
         140           1  0.95438500000000004       -1.5387866741805354        5.6916658800334989       -5.1942537209469100                0           0           0
         141           1  0.98720399999999997      -0.38223710356917273        5.6329555911344276       -5.5799995787499039                0           0           0
         142           1  0.86126300000000000       0.23350106225498202        5.0139065227901050       -4.8299205466289719                0           0           0
         143           1  0.79245800000000000        1.0941106043862145        4.6899320389915307       -4.7698532766969794                0           0           0
         144           1   1.2686580000000001        1.9898945141058535        4.9485311815447570       -5.3162995693106296                0           0           0
         145           1  0.86478800000000000        2.9187538632263390        5.2729608433128625       -4.8574411299876488                0           0           0
         146           1  0.73688299999999995        3.1448470190948505        5.0121329829540144       -5.6965083284248639                0           0           0
         147           1   1.4304490000000001        3.9917069652522930        4.9953872954151084       -4.9152801748007517                0           0           0
         148           1  0.76117100000000004        5.1017985247376938        5.0303936046785012       -5.0211112133461242                0           0           0
         149           1  0.81904200000000005        4.6149454313509164        4.8807662854996376        5.6734929844978126                0           0           0
         150           1  0.74355499999999997       -5.1783744317151443       -5.2323728617765495       -3.7819564607868017                0           0           0
         151           1  0.76271500000000003       -3.9000069643982704       -5.0062027008526648       -3.9593825830570766                0           0           0
         152           1  0.76898400000000000       -2.4817490857985072       -4.8035636475257855       -4.0466631825983681                0           0           0
         153           1   1.0236600000000000       -3.1855244280687844       -5.5514422370433261       -3.5193379960640372                0           0           0
         154           1  0.73077700000000001       -1.4883441923469505       -4.8801611376742793       -3.7868861067851181                0           0           0
         155           1   1.1202880000000000       -2.0102214683091941       -5.6712249012121330       -4.1900715212770763                0           0           0
         156           1  0.76807899999999996       -1.1623712803514534       -5.1776491734272874       -4.4995886416388720                0           0           0
         157           1   1.3321630000000000      -0.45082098925019309       -4.9772427855181354       -3.6655468430236766                0           0           0
         158           1  0.80179999999999996       0.65386842916311760       -4.9202020358975904       -3.9462176052713982                0           0           0
         159           1  0.94373200000000002        1.6133038551976036       -5.0578076099893048       -4.0286824017114444                0           0           0
         160           1  0.95481799999999994        3.1784266294177677       -4.6730315814732810       -4.5022895334997983                0           0           0
         161           1   1.4699640000000000        2.7753968521710224       -5.6437238106402026       -3.8553890193887046                0           0           0
         162           1   1.3309860000000000        4.2513155637266102       -5.0884230058758781       -4.0871878492699594                0           0           0
         163           1   1.1672389999999999        5.5673652568006435       -5.5023653466884630       -4.4558801384035469                0           0           0
         164           1  0.96901499999999996       -5.4442567499601893       -4.3987005005013913       -4.4217875766180725                0           0           0
         165           1   1.1382319999999999       -4.6478268489136862       -4.3865015789176010       -3.6101117951396247                0           0           0
         166           1   1.0295930000000000       -5.6961567874693761       -3.7174351028742874       -3.5820032124119212                0           0           0
         167           1  0.75638000000000005       -4.1006649544434746       -3.5517503519279656       -3.8350071555678955                0           0           0
         168           1   1.4976440000000000       -3.2649220532222190       -4.1964569658557629       -3.6203037298218086                0           0           0
         169           1   1.3677140000000001       -1.8461690127110959       -3.9711138521011682       -4.1975420159746939                0           0           0
         170           1  0.87362600000000001      -0.84467558824963174       -4.2990268607428694       -4.4463733631777096                0           0           0
         171           1  0.77448300000000003      -0.48960584990309375       -3.9092147639987820       -3.6624528825181097                0           0           0
         172           1   1.1426689999999999       0.17443226682872037       -4.1521463442883197       -4.4590514972228092                0           0           0
         173           1   1.6053649999999999        1.3709889917973630       -3.8473474376986534       -3.7887380580452192                0           0           0
         174           1  0.81254700000000002        2.3827407734305979       -4.4091484206672327       -4.0201762397521170                0           0           0
         175           1   1.5251770000000000        2.8615779858136783       -3.4505904952515092       -4.4869822462718805                0           0           0
         176           1  0.90739599999999998        3.8979763489079406       -3.9348559527398148       -4.1681541097222201                0           0           0
         177           1  0.91723800000000000        3.4622738861244677       -3.3054567804198896       -3.4499332911168081                0           0           0
         178           1  0.98055700000000001        4.9345381142075233       -4.1331935848811048       -4.2293346171259385                0           0           0
         179           1   1.4378010000000001       -4.9325690017116370       -3.2562250380849598       -4.4115047728797565                0           0           0