LAMMPS data file via write_data, version 17 Nov 2016, timestep = 0
      
  1500 atoms
      
1 atom types
  -5.7235712129999996        5.7235712129999996      xlo xhi
  -5.7235712129999996        5.7235712129999996      ylo yhi
  -5.7235712129999996        5.7235712129999996      zlo zhi
Masses
      
1 1
      
Pair Coeffs # lj/poly
      
                               1 1.0 1.0 2.025 1.25 0.2
      
Atoms # charge
      
           1           1  0.82965299999999997       -5.5508885749262618       -4.8792998391685574       -5.2677025620642466                0           0           0
           2           1   1.5413479999999999       -4.5861710988229598       -5.2713743197676992       -4.7581528079362290                0           0           0
           3           1  0.86062700000000003       -3.8136352856012046       -4.7614966209636593       -5.4944585686797343                0           0           0
           4           1   1.2325940000000000       -3.1900409287749727       -5.2224826311959172       -4.6661282186231157                0           0           0
           5           1  0.92110899999999996       -2.0945926236314873       -4.8984250333294010       -4.8998369245530391                0           0           0
           6           1   1.5043869999999999       -1.0428666874543744       -4.7269165437412104       -5.4642468896552741                0           0           0
           7           1  0.88103100000000001      -0.19902236225911807       -5.1567467395435216       -4.7389448599694752                0           0           0
           8           1  0.92227999999999999       0.29871633144311094       -4.6659332993547693       -5.4689135839791909                0           0           0
           9           1   1.5129459999999999       0.93825357535664455       -5.5210839854928375       -4.9786327111871893                0           0           0
          10           1  0.87097899999999995        2.1148297746719749       -5.5793108094639443       -4.7697744028047939                0           0           0
          11           1  0.82823300000000000        1.9346096363551633       -5.3960092264484585       -5.6948607619932092                0           0           0
          12           1   1.3333429999999999        3.0279630452244675       -5.3274290786187777       -5.5330808805712737                0           0           0
          13           1  0.81986499999999995        4.1197900055422298       -5.3060758920564366       -5.3252090031941917                0           0           0
          14           1  0.74748000000000003        3.5244623557678096       -5.5395514341019672       -4.6464668212052533                0           0           0
          15           1  0.86770400000000003        4.9122445980622800       -4.8148659915267409       -4.9860109136578403                0           0           0
          16           1  0.73948999999999998        4.6854951617164744       -5.6947249266494051       -4.8010507026892544                0           0           0
          17           1   1.1174949999999999       -4.8079455122778398       -4.1477882468580614       -5.5254012856420607                0           0           0
          18           1   1.0167780000000000       -4.0246994215475436       -4.1340948134149329       -4.6452820830290475                0           0           0
          19           1   1.0699300000000000       -2.8699019884125891       -4.0606162525061045       -4.8539679015812940                0           0           0
          20           1  0.76943799999999996       -1.9729641421310453       -4.0839304142383863       -5.3012304544072455                0           0           0
          21           1   1.0829869999999999      -0.23579387910347549       -3.7604262195896982       -5.6602699541818877                0           0           0
          22           1   1.3859269999999999       0.98435903645749168       -3.6838047432594867       -5.3598148993438413                0           0           0
          23           1  0.77240699999999995        1.0911841176499015       -4.5001422317170761       -4.6478334176370959                0           0           0
          24           1   1.1917739999999999        2.0279287146381684       -4.5391043685914969       -4.9959330997448408                0           0           0
          25           1  0.76583000000000001        1.8137318533244091       -3.5357459635348913       -4.7309754720390771                0           0           0
          26           1  0.97774899999999998        2.1667274897282081       -3.5628390049368996       -5.6186335441422282                0           0           0
          27           1  0.83108000000000004        2.9272012330335304       -4.1979771334437750       -5.3784233390809826                0           0           0
          28           1   1.2215430000000000        3.9766434056104742       -4.2748839274353454       -5.2467728637579576                0           0           0
          29           1   1.3806490000000000        5.3939224273744664       -3.8321512562522320       -5.3310466308631659                0           0           0
          30           1   1.0400879999999999       -5.1879580319027454       -2.9411144569445367       -5.6168062154838898                0           0           0
          31           1  0.77126099999999997       -4.3004222210099270       -3.2814901547574471       -5.2738906212458501                0           0           0
          32           1  0.92384800000000000       -4.2835175300810810       -2.3858290423135062       -4.9351445948380590                0           0           0
          33           1  0.88862900000000000       -2.3238329200213932       -3.1381766410970493       -4.8721308536801624                0           0           0
          34           1  0.86158199999999996       -3.0732986177932902       -2.8361430377418642       -5.5361844527015140                0           0           0
          35           1   1.1209890000000000       -1.3081064051550557       -3.3607898068002329       -5.2628471129217855                0           0           0
          36           1   1.2420370000000001      -0.19967268249664816       -2.9277113700719557       -4.7185167598063380                0           0           0
          37           1  0.88274100000000000       -1.0388814108389726       -2.3324654035735035       -5.1657400716484698                0           0           0
          38           1   1.0668899999999999       0.70856631170838735       -2.4486349349964835       -5.4118891786299725                0           0           0
          39           1   1.1892499999999999        1.8844444967893565       -2.5767099461562744       -5.0870068031373501                0           0           0
          40           1  0.78319600000000000        2.8402282883488432       -2.8136805056640495       -5.3722552835607074                0           0           0
          41           1  0.77194799999999997        2.7375693319406569       -2.2964112686009295       -4.5348353174184428                0           0           0
          42           1  0.74873199999999995        3.6616833358703804       -3.2989042608868111       -5.1990931067770845                0           0           0
          43           1   1.0263439999999999        4.5036428436218596       -3.2546980589397796       -4.7764266274883767                0           0           0
          44           1  0.81308199999999997        4.5411942391806264       -2.5185740643890377       -5.4367551583755942                0           0           0
          45           1   1.1161060000000000        3.6625446183988437       -2.3465581265407356       -4.9675640735439677                0           0           0
          46           1   1.2125560000000000        5.4065738101030600       -2.4148520129743392       -4.8869911546486158                0           0           0
          47           1  0.74192100000000005       -4.9938846965848303       -2.0312912564274641       -5.3594435225801549                0           0           0
          48           1  0.91800800000000005       -4.1444597468942890       -1.5487261427007848       -5.5022106337890406                0           0           0
          49           1  0.83222700000000005       -3.2271039946767148       -1.9484572397256690       -5.2755764548533595                0           0           0
          50           1   1.0095200000000000       -2.5255184794781598       -1.2231387973403240       -4.8877972736294160                0           0           0
          51           1   1.4893410000000000       -2.1330511544933235       -2.1945347031982019       -5.5785205840651919                0           0           0
          52           1   1.2179240000000000       -1.3383414299862997       -1.3244509256386197       -4.7683654993380316                0           0           0
          53           1   1.0644769999999999      -0.21444649602632371       -1.6560749832520241       -5.2135987652704934                0           0           0
          54           1   1.3780330000000001       0.97217931149724990       -1.2742043075787590       -5.0254536463090629                0           0           0
          55           1   1.0451729999999999        2.1562602428527624       -1.4277216565071944       -4.8222756423808892                0           0           0
          56           1  0.79520100000000005        3.6456551928131837       -1.3574888650118355       -5.2564772878301751                0           0           0
          57           1   1.0204660000000001        4.4601442948741035       -1.5461746019342009       -4.6123863709554236                0           0           0
          58           1  0.80856499999999998        5.3578650824895711       -1.3685005804055015       -5.0314278202542342                0           0           0
          59           1   1.3538969999999999       -5.0458360586387538       -1.0604874519570240       -4.9824119674246798                0           0           0
          60           1  0.75854699999999997       -4.0559920032454997      -0.67457105009255791       -5.1863756896538522                0           0           0
          61           1  0.73175199999999996       -2.4323181816673429      -0.43108368371169359       -5.3680514840527636                0           0           0
          62           1   1.0328729999999999       -3.2212224727925145      -0.31948845622779842       -4.8583464613972671                0           0           0
          63           1  0.75083299999999997       -1.6053042075925275      -0.29556705502307867       -5.2693582341808058                0           0           0
          64           1  0.82179500000000005       -1.8840828615850662       -1.0774775306011168       -5.6605232296431645                0           0           0
          65           1  0.90665300000000004      -8.57291006913829534E-003 -0.65614456881280336       -4.8657677619186561                0           0           0
          66           1  0.88653700000000002      -0.93637772940736586      -0.30301705789146816       -4.6176857185538545                0           0           0
          67           1   1.1960150000000001       0.61425243121707229      -5.88820737685979978E-002  -5.5078323159933191                0           0           0
          68           1   1.0855290000000000        1.7630257151938089      -0.25713165186154985       -4.9775878499109361                0           0           0
          69           1  0.97821599999999997        2.8743018067995383      -0.73244075685707877       -5.2580788693798421                0           0           0
          70           1   1.4363210000000000        3.8752632687016497      -0.45640811280515692       -4.6846739267944457                0           0           0
          71           1   1.1656560000000000        5.2196147170477278      -0.35381624791999844       -4.9028309173745210                0           0           0
          72           1   1.0241950000000000       -5.1445562399914717       6.35065932518728005E-002  -5.4499628295987526                0           0           0
          73           1  0.83424600000000004       -4.6112022684048997       0.76611328367349518       -4.9651544322699817                0           0           0
          74           1   1.2242780000000000       -5.7180380235520376       0.90493885408014041       -4.8371332930583941                0           0           0
          75           1   1.2615920000000000       -3.9359302965097944       0.26598965522595375       -5.6884116104182239                0           0           0
          76           1  0.96946900000000003       -2.7361003756722053       0.42384684013926943       -5.5132133039589677                0           0           0
          77           1   1.0105480000000000       -3.3826774989855530       0.85954650070385874       -4.7508270474126011                0           0           0
          78           1   1.1696240000000000       -1.6396201674269140       0.71616107655725614       -5.3731026452341943                0           0           0
          79           1  0.91265600000000002       -2.2998969560867217        1.0207815188591693       -4.5783272938717179                0           0           0
          80           1  0.77751099999999995      -0.66795849975903643       0.45266622174446081       -5.3557301619232680                0           0           0
          81           1  0.88239800000000002       0.43319929821564163        1.0349247743278189       -5.3348971134943044                0           0           0
          82           1  0.79924200000000001        1.0769346653638276       0.44344175909038519       -4.6711818958883287                0           0           0
          83           1   1.1011640000000000        1.4539874144373286       0.81750308037006381       -5.6054464829023436                0           0           0
          84           1   1.4763390000000001        2.1757168256903361       0.88824022719399309       -4.5363469437316120                0           0           0
          85           1  0.85063500000000003        2.9580982860095393       0.19321115206969086       -4.8896370939264129                0           0           0
          86           1  0.83979999999999999        3.6450493598144540       0.21220932706839957       -5.5461660725362947                0           0           0
          87           1   1.1119710000000000        4.4796800965401289       0.66701087717721919       -5.0011042477335952                0           0           0
          88           1  0.92940100000000003       -5.4570388582189633        1.9608237877112700       -5.1007717561463970                0           0           0
          89           1  0.98624599999999996       -4.6162937625044052        2.3566765972410320       -5.6294271349300287                0           0           0
          90           1  0.88377099999999997       -3.8568996402792641        1.4235434771990976       -5.5094632854209538                0           0           0
          91           1   1.4289920000000000       -4.4197559312764705        1.7672360720953231       -4.5670497727976249                0           0           0
          92           1   1.2863240000000000       -2.6712576783280562        1.6162076135706327       -5.4865774012796624                0           0           0
          93           1  0.83280200000000004       -3.2636189390184294        1.8625470988785100       -4.5865203087058317                0           0           0
          94           1  0.91532000000000002       -1.5867695421358734        1.8507237465979944       -5.2044247527545950                0           0           0
          95           1   1.0549850000000001      -0.61748828823401958        1.4245059920835441       -5.3273445468709433                0           0           0
          96           1   1.4844250000000001       0.40422758059204789        2.1890608003165415       -5.4339072053490387                0           0           0
          97           1  0.86414400000000002        1.4742276863739434        1.8106311498319609       -5.3050582600523297                0           0           0
          98           1   1.3125690000000001        2.4412750146057096        2.2797884567207234       -5.1458545665905966                0           0           0
          99           1  0.82318199999999997        2.3802725565675171        1.2553014618736675       -5.6210197089913336                0           0           0
         100           1   1.2526790000000001        3.4002880133213562        1.2329934986959490       -5.3618765301742863                0           0           0
         101           1   1.3715560000000000        4.6936815108882257        1.9456818150365285       -5.2165383286085412                0           0           0
         102           1   1.1018300000000001       -5.2715925247635020        2.9226390617630962       -4.6581033669881435                0           0           0
         103           1   1.0932630000000001       -3.5688114839950771        2.4590211093107666       -5.3429502227625170                0           0           0
         104           1  0.91189900000000002       -4.1198013040634525        2.8851376722096678       -4.5123166109698758                0           0           0
         105           1  0.73728300000000002       -2.6132044083275892        2.6401858365567765       -5.2585362696959788                0           0           0
         106           1  0.79696199999999995       -3.3100978052810417        3.3999634250111264       -5.2518961173430929                0           0           0
         107           1   1.2884510000000000       -1.6764204437909687        2.9529454765007159       -4.9453751329796320                0           0           0
         108           1  0.90628100000000000      -0.72706920779176709        2.3968889658462587       -4.7432251274197590                0           0           0
         109           1   1.2439519999999999      -0.38547933709477622        3.3599391911032015       -5.1961874857875596                0           0           0
         110           1  0.85372000000000003      -0.78272828018684937        2.4263540309240490       -5.7184083274298239                0           0           0
         111           1  0.79320299999999999       0.61211618090179432        3.3018873847997767       -5.5964502698452900                0           0           0
         112           1  0.83657099999999995        1.1729628191596246        2.4687641502940281       -4.6459951284619621                0           0           0
         113           1  0.79898800000000003        2.9592871889714978        3.1900142244363305       -4.7849794997182018                0           0           0
         114           1  0.97961900000000002        3.5939485238770050        2.3826851946822671       -4.7883984985138115                0           0           0
         115           1  0.80490099999999998        4.3388699353370068        2.9628771472332023       -5.0303200094612439                0           0           0
         116           1  0.76785300000000001        5.2777871619154642        2.8446788822773641       -5.1951764683035844                0           0           0
         117           1  0.78729899999999997       -4.9552955808268218        4.4909904834705188       -5.4886315204949350                0           0           0
         118           1  0.86933700000000003       -5.5497352213722886        3.5900516755237089       -5.4415706243749531                0           0           0
         119           1   1.4795579999999999       -4.3756009549699071        3.5599314502557959       -5.4166978232952872                0           0           0
         120           1   1.1486650000000000       -3.1828873453251858        4.3767733212916440       -5.0843259860141963                0           0           0
         121           1  0.75789499999999999       -2.3871372878673505        3.7417683382992024       -4.9419427587358911                0           0           0
         122           1  0.80026200000000003       -2.3192546654514463        4.4446173901793653       -5.6137514463835556                0           0           0
         123           1  0.84546600000000005       -1.5240560306616988        3.9567349936593033       -5.5375747648475020                0           0           0
         124           1  0.74727200000000005       -1.2033404943017514        3.8568091540596647       -4.6771380960352573                0           0           0
         125           1   1.1842509999999999       -1.9050806976711194        4.6003494120314894       -4.6931686907673980                0           0           0
         126           1   1.0372950000000001      -0.65668842913388481        4.5187836931481051       -5.4039619996276445                0           0           0
         127           1  0.75573400000000002       0.26190167883122673        4.1612965050240884       -5.1376799781513203                0           0           0
         128           1  0.90554000000000001        1.2388307803733856        4.0858342401559646       -5.6152645176678737                0           0           0
         129           1  0.73019400000000001        1.8098060710344477        4.2129711446545368       -4.6960567007748031                0           0           0
         130           1   1.1501790000000001        2.1510004104316236        3.5473248348467443       -5.3277894581457739                0           0           0
         131           1   1.0361840000000000        3.0244588687512586        4.2498267459672849       -5.0758537209640755                0           0           0
         132           1  0.78415599999999996        3.9298071425202732        3.9070268833560071       -5.1480831538304503                0           0           0
         133           1  0.84128000000000003        4.6825031307970395        4.1809889988800855       -4.6291641203304055                0           0           0
         134           1   1.3047489999999999        4.8091982714280572        3.6863042915484030       -5.6347434143104458                0           0           0
         135           1  0.87163800000000002       -5.3676048970329893        5.3241378827845338       -5.1966915501082251                0           0           0
         136           1   1.1479109999999999       -4.3683772506886118        4.7483694887304839       -4.6961995826815048                0           0           0
         137           1  0.85967499999999997       -3.6128019899975863        5.3392726024341535       -5.1030171776911786                0           0           0
         138           1  0.80051799999999995       -4.4925382480078486        5.3871468635751505       -5.5118154487859723                0           0           0
         139           1   1.1004989999999999       -2.5970143032854165        5.4338209702510731       -5.4071310671069517                0           0           0
         140           1  0.95438500000000004       -1.5537783170533119        5.6917445597070042       -5.1994222587195651                0           0           0
         141           1  0.98720399999999997      -0.33519030112152404        5.6422770777463320       -5.5493348068371464                0           0           0
         142           1  0.86126300000000000       0.21946650518797295        5.0163360669122579       -4.8406370286781799                0           0           0
         143           1  0.79245800000000000        1.0881053532588005        4.7011964428268342       -4.7940564962054975                0           0           0
         144           1   1.2686580000000001        1.9918351033042248        4.9439289124973254       -5.3293361735855154                0           0           0
         145           1  0.86478800000000000        2.9176238796588390        5.2707803800006694       -4.8592985945826186                0           0           0
         146           1  0.73688299999999995        3.1221121839970802        5.0160643313487565       -5.7077835255392397                0           0           0
         147           1   1.4304490000000001        3.9901870600844198        4.9937785106954173       -4.9121842823897675                0           0           0
         148           1  0.76117100000000004        5.1008073657114750        5.0320677302179551       -5.0218776564452492                0           0           0
         149           1  0.81904200000000005        4.6122607768545887        4.8790784347085712        5.6747167744604621                0           0           0
         150           1  0.74355499999999997       -5.1755513942962974       -5.2319664063165829       -3.7961657903910124                0           0           0
         151           1  0.76271500000000003       -3.9055731393143587       -5.0055927971932714       -3.9566590261047461                0           0           0
         152           1  0.76898400000000000       -2.4921412268369258       -4.8067906655732049       -4.0488235925473326                0           0           0
         153           1   1.0236600000000000       -3.1910913632187241       -5.5620183638124994       -3.5254415378308677                0           0           0
         154           1  0.73077700000000001       -1.4125450186060755       -5.0772136276176330       -3.6681387381440707                0           0           0
         155           1   1.1202880000000000       -2.0379437941727976       -5.6809630577341048       -4.1897924741562722                0           0           0
         156           1  0.76807899999999996       -1.2262701494655346       -5.1497635321598239       -4.4878116382608884                0           0           0
         157           1   1.3321630000000000      -0.40685378403391681       -4.9693166296216109       -3.6557077149989285                0           0           0
         158           1  0.80179999999999996       0.66861152358763842       -4.9166978402165746       -3.9405054648648248                0           0           0
         159           1  0.94373200000000002        1.6240456279625937       -5.0630235612603940       -4.0234464753390462                0           0           0
         160           1  0.95481799999999994        3.1749203408689439       -4.6748434927707923       -4.5116475829164076                0           0           0
         161           1   1.4699640000000000        2.7764550653844857       -5.6398661489581361       -3.8579347528904133                0           0           0
         162           1   1.3309860000000000        4.2496285682736019       -5.0886848749933344       -4.0922342842638306                0           0           0
         163           1   1.1672389999999999        5.5617999796606092       -5.5017726689825812       -4.4614996958896356                0           0           0
         164           1  0.96901499999999996       -5.4377457980681356       -4.3972680576208143       -4.4247328999135647                0           0           0
         165           1   1.1382319999999999       -4.6499781963045379       -4.3857759912138743       -3.6061408528633083                0           0           0
         166           1   1.0295930000000000       -5.6916764677346023       -3.7163015200496590       -3.5810472596431140                0           0           0
         167           1  0.75638000000000005       -4.1051501139775750       -3.5519345100464199       -3.8319163423356715                0           0           0
         168           1   1.4976440000000000       -3.2663785887314627       -4.1959716030944572       -3.6167224253467420                0           0           0
         169           1   1.3677140000000001       -1.8350167911526953       -3.9950517068121245       -4.2016598250491519                0           0           0
         170           1  0.87362600000000001      -0.82584361224774039       -4.3116648998194709       -4.4445747729928762                0           0           0
         171           1  0.77448300000000003      -0.48039784597596302       -3.9080671727552256       -3.6633049883501130                0           0           0
         172           1   1.1426689999999999       0.18921880660375034       -4.1445250670176499       -4.4590363636842065                0           0           0
         173           1   1.6053649999999999        1.3805516823136736       -3.8495952009179990       -3.7840495809060677                0           0           0
         174           1  0.81254700000000002        2.3886955652493551       -4.4092855093413341       -4.0168579028353362                0           0           0
         175           1   1.5251770000000000        2.8653038917740137       -3.4494665385727759       -4.4886084504733406                0           0           0
         176           1  0.90739599999999998        3.8982954326832449       -3.9390208123539714       -4.1798631331806595                0           0           0
         177           1  0.91723800000000000        3.4753216235630706       -3.2973429958443652       -3.4609941875932146                0           0           0
         178           1  0.98055700000000001        4.9423686859167582       -4.1399279354422394       -4.2290694821310684                0           0           0
         179           1   1.4378010000000001       -4.9335286732308994       -3.2515105567748841       -4.4139437034048328                0           0           0