LAMMPS data file via write_data, version 17 Nov 2016, timestep = 0
      
  1500 atoms
      
1 atom types
  -5.7235712129999996        5.7235712129999996      xlo xhi
  -5.7235712129999996        5.7235712129999996      ylo yhi
  -5.7235712129999996        5.7235712129999996      zlo zhi
Masses
      
1 1
      
Pair Coeffs # lj/poly
      
                               1 1.0 1.0 2.025 1.25 0.2
      
Atoms # charge
      
           1           1  0.82965299999999997       -5.5501042156377887       -4.8790594256580260       -5.2674130274289981                0           0           0
           2           1   1.5413479999999999       -4.5823761753341277       -5.2698772149987647       -4.7585073880558202                0           0           0
           3           1  0.86062700000000003       -3.8065199844969029       -4.7611912318347400       -5.4907137087654485                0           0           0
           4           1   1.2325940000000000       -3.1805930793517510       -5.2242466075989134       -4.6600373395182277                0           0           0
           5           1  0.92110899999999996       -2.0875742737207212       -4.8923086347796341       -4.8986134886500494                0           0           0
           6           1   1.5043869999999999       -1.0442803665684997       -4.7207765592436379       -5.4660145392600175                0           0           0
           7           1  0.88103100000000001      -0.20862913303248121       -5.1697813908282964       -4.7405829901910694                0           0           0
           8           1  0.92227999999999999       0.28886681162023464       -4.6672883810787695       -5.4648705257025698                0           0           0
           9           1   1.5129459999999999       0.93440371651693788       -5.5203911159182351       -4.9755638553759374                0           0           0
          10           1  0.87097899999999995        2.1120737072557176       -5.5785926301274014       -4.7677054983672313                0           0           0
          11           1  0.82823300000000000        1.9325556316449441       -5.3959741830276098       -5.6929830115666515                0           0           0
          12           1   1.3333429999999999        3.0262227993820581       -5.3268448650152589       -5.5296673015278213                0           0           0
          13           1  0.81986499999999995        4.1188098927518784       -5.3075764525623050       -5.3220209472173243                0           0           0
          14           1  0.74748000000000003        3.5229186366317951       -5.5394747021576052       -4.6435536673872235                0           0           0
          15           1  0.86770400000000003        4.9119995339450391       -4.8149407410064100       -4.9850809005232071                0           0           0
          16           1  0.73948999999999998        4.6874149754714161       -5.6946405635098873       -4.7995379219029717                0           0           0
          17           1   1.1174949999999999       -4.8091568153585875       -4.1466139519356782       -5.5244804126439320                0           0           0
          18           1   1.0167780000000000       -4.0258321779868851       -4.1320273943108123       -4.6450341963665487                0           0           0
          19           1   1.0699300000000000       -2.8727974752147638       -4.0591028709982151       -4.8546087444751578                0           0           0
          20           1  0.76943799999999996       -1.9749713946501872       -4.0778244296766264       -5.2993636108441162                0           0           0
          21           1   1.0829869999999999      -0.23854856072296649       -3.7569510736107388       -5.6599626835271630                0           0           0
          22           1   1.3859269999999999       0.97783157452713354       -3.6858479983503925       -5.3538195209491093                0           0           0
          23           1  0.77240699999999995        1.0835385115185332       -4.5005682202784349       -4.6448935777386726                0           0           0
          24           1   1.1917739999999999        2.0228257565000876       -4.5389975115597778       -4.9928878361903504                0           0           0
          25           1  0.76583000000000001        1.8103266932443951       -3.5353139138003735       -4.7290050185965704                0           0           0
          26           1  0.97774899999999998        2.1621943878013079       -3.5633100693830970       -5.6161065316469125                0           0           0
          27           1  0.83108000000000004        2.9236826884172871       -4.1983537973498075       -5.3751348090774611                0           0           0
          28           1   1.2215430000000000        3.9749633781510028       -4.2759639998318875       -5.2459800066964632                0           0           0
          29           1   1.3806490000000000        5.3929056833550675       -3.8317169919117968       -5.3308835460523571                0           0           0
          30           1   1.0400879999999999       -5.1900128116989395       -2.9403067910671470       -5.6172016213143543                0           0           0
          31           1  0.77126099999999997       -4.3026406945929470       -3.2792740176136301       -5.2739459190920943                0           0           0
          32           1  0.92384800000000000       -4.2853449300485540       -2.3834400973169116       -4.9350564975443456                0           0           0
          33           1  0.88862900000000000       -2.3287234712080433       -3.1324330732460597       -4.8711078440761115                0           0           0
          34           1  0.86158199999999996       -3.0752750231132291       -2.8330508865108706       -5.5366257743841478                0           0           0
          35           1   1.1209890000000000       -1.3103470321890169       -3.3553247566137210       -5.2613703129712528                0           0           0
          36           1   1.2420370000000001      -0.20020554752078912       -2.9274549452971570       -4.7176721267795063                0           0           0
          37           1  0.88274100000000000       -1.0383688169438887       -2.3286638045512671       -5.1651951951155093                0           0           0
          38           1   1.0668899999999999       0.70738155681693016       -2.4483167572335138       -5.4110238308065606                0           0           0
          39           1   1.1892499999999999        1.8826340064129274       -2.5766261519629663       -5.0852036901388900                0           0           0
          40           1  0.78319600000000000        2.8386620021456057       -2.8121398753989140       -5.3671967393709705                0           0           0
          41           1  0.77194799999999997        2.7374525298725754       -2.2971954211237966       -4.5350439541669045                0           0           0
          42           1  0.74873199999999995        3.6600448566733412       -3.3006287020721659       -5.1947317284862944                0           0           0
          43           1   1.0263439999999999        4.5030937116560050       -3.2544036982931921       -4.7750562238475016                0           0           0
          44           1  0.81308199999999997        4.5412926709062766       -2.5191711588782750       -5.4369879103078738                0           0           0
          45           1   1.1161060000000000        3.6630087635109518       -2.3472503954472117       -4.9668590880889818                0           0           0
          46           1   1.2125560000000000        5.4058233889853629       -2.4149336618825719       -4.8869664226407119                0           0           0
          47           1  0.74192100000000005       -4.9949953724411360       -2.0302402106450654       -5.3606785428349069                0           0           0
          48           1  0.91800800000000005       -4.1444164489362905       -1.5471392654764706       -5.5025478920931006                0           0           0
          49           1  0.83222700000000005       -3.2271818365372136       -1.9455261729350362       -5.2752362759572664                0           0           0
          50           1   1.0095200000000000       -2.5257529388544588       -1.2206890893403664       -4.8875624968932314                0           0           0
          51           1   1.4893410000000000       -2.1335875750507887       -2.1919580571010537       -5.5778729374910823                0           0           0
          52           1   1.2179240000000000       -1.3377555374030266       -1.3200711274311088       -4.7692819390189509                0           0           0
          53           1   1.0644769999999999      -0.21411074017947396       -1.6537443035415045       -5.2139380042982273                0           0           0
          54           1   1.3780330000000001       0.97252536131733702       -1.2736588112303169       -5.0253241070243124                0           0           0
          55           1   1.0451729999999999        2.1564989430289918       -1.4277021767742673       -4.8214865263287141                0           0           0
          56           1  0.79520100000000005        3.6464011987644849       -1.3583131908039441       -5.2568006980746418                0           0           0
          57           1   1.0204660000000001        4.4612225813743684       -1.5470748194625479       -4.6137454816937886                0           0           0
          58           1  0.80856499999999998        5.3584322510468123       -1.3688814836877397       -5.0333662714558018                0           0           0
          59           1   1.3538969999999999       -5.0458295853187920       -1.0602121095358870       -4.9817640004494592                0           0           0
          60           1  0.75854699999999997       -4.0563368663131314      -0.67307602145072387       -5.1867862992689773                0           0           0
          61           1  0.73175199999999996       -2.4322739838288667      -0.42893748778860363       -5.3681937100376240                0           0           0
          62           1   1.0328729999999999       -3.2215000503726614      -0.31761340633321478       -4.8588229510029741                0           0           0
          63           1  0.75083299999999997       -1.6049147220735263      -0.29499919218093140       -5.2690738873819152                0           0           0
          64           1  0.82179500000000005       -1.8851191313279174       -1.0755055374998834       -5.6608461920647146                0           0           0
          65           1  0.90665300000000004      -8.04151307502376511E-003 -0.65464958166057308       -4.8660670362553775                0           0           0
          66           1  0.88653700000000002      -0.93580447412957835      -0.30068533255507646       -4.6176125892436772                0           0           0
          67           1   1.1960150000000001       0.61520186233422791      -5.82789068003988220E-002  -5.5083982803597120                0           0           0
          68           1   1.0855290000000000        1.7638103947266650      -0.25707355039066204       -4.9779039113928958                0           0           0
          69           1  0.97821599999999997        2.8747474771257888      -0.73289062358878798       -5.2583500854383436                0           0           0
          70           1   1.4363210000000000        3.8757825858015682      -0.45728207960069245       -4.6851674521311999                0           0           0
          71           1   1.1656560000000000        5.2198774937336196      -0.35431277018814544       -4.9027981758879315                0           0           0
          72           1   1.0241950000000000       -5.1445823576557030       6.34450292569921359E-002  -5.4501735868955459                0           0           0
          73           1  0.83424600000000004       -4.6116273156991854       0.76681245013699417       -4.9653215286413239                0           0           0
          74           1   1.2242780000000000       -5.7176469427940706       0.90499084142384945       -4.8374640064520937                0           0           0
          75           1   1.2615920000000000       -3.9360774333733510       0.26737680334833946       -5.6885020078926942                0           0           0
          76           1  0.96946900000000003       -2.7361808133910279       0.42561333651252209       -5.5134983362680750                0           0           0
          77           1   1.0105480000000000       -3.3825208002203748       0.86105246972269445       -4.7506547157186230                0           0           0
          78           1   1.1696240000000000       -1.6392690146384874       0.71684502257535154       -5.3727553285916088                0           0           0
          79           1  0.91265600000000002       -2.2995569450611666        1.0226558630325133       -4.5781382113650348                0           0           0
          80           1  0.77751099999999995      -0.66698066095747865       0.45424530499028393       -5.3554559986227561                0           0           0
          81           1  0.88239800000000002       0.43385527696484338        1.0340042439163595       -5.3358053835808370                0           0           0
          82           1  0.79924200000000001        1.0778773650838742       0.44346024063012290       -4.6718250791572267                0           0           0
          83           1   1.1011640000000000        1.4548094091990107       0.81775344148966500       -5.6069416573368276                0           0           0
          84           1   1.4763390000000001        2.1767560213081536       0.88822717824624142       -4.5379774711595964                0           0           0
          85           1  0.85063500000000003        2.9587722146643785       0.19229302263543335       -4.8898072635709173                0           0           0
          86           1  0.83979999999999999        3.6460226761789016       0.21221937886032549       -5.5462109126790748                0           0           0
          87           1   1.1119710000000000        4.4801678307687318       0.66666809447357256       -5.0013585798877340                0           0           0
          88           1  0.92940100000000003       -5.4564205439915749        1.9609563759430069       -5.1012802962582882                0           0           0
          89           1  0.98624599999999996       -4.6155455309799143        2.3582605576963616       -5.6287480746088434                0           0           0
          90           1  0.88377099999999997       -3.8563206809935830        1.4257253057975907       -5.5094451230687636                0           0           0
          91           1   1.4289920000000000       -4.4192267364348741        1.7678422499008883       -4.5668485054267975                0           0           0
          92           1   1.2863240000000000       -2.6715604311697501        1.6174072592782389       -5.4865219029989092                0           0           0
          93           1  0.83280200000000004       -3.2637437706052626        1.8643464561855119       -4.5865164885193650                0           0           0
          94           1  0.91532000000000002       -1.5866441233689130        1.8503455823928459       -5.2048926693155710                0           0           0
          95           1   1.0549850000000001      -0.61646453914403132        1.4253537162819363       -5.3287478426712678                0           0           0
          96           1   1.4844250000000001       0.40757842468933081        2.1869447932072230       -5.4381142540963427                0           0           0
          97           1  0.86414400000000002        1.4773478265284297        1.8098766598304792       -5.3058315396106526                0           0           0
          98           1   1.3125690000000001        2.4433622831223847        2.2801825093511674       -5.1474431043649700                0           0           0
          99           1  0.82318199999999997        2.3812312527985853        1.2558430246146397       -5.6226822964463699                0           0           0
         100           1   1.2526790000000001        3.4014252463618178        1.2333433790464712       -5.3634260413793537                0           0           0
         101           1   1.3715560000000000        4.6947772855703302        1.9455567366070676       -5.2167680976829196                0           0           0
         102           1   1.1018300000000001       -5.2699043220629500        2.9229143143848653       -4.6584692720502892                0           0           0
         103           1   1.0932630000000001       -3.5679308232213978        2.4617545969102199       -5.3430017691012068                0           0           0
         104           1  0.91189900000000002       -4.1192518367230155        2.8858862403296364       -4.5125305372159659                0           0           0
         105           1  0.73728300000000002       -2.6131035914754119        2.6418011352867996       -5.2584183374646036                0           0           0
         106           1  0.79696199999999995       -3.3078405804758151        3.4033279337748681       -5.2511191563589978                0           0           0
         107           1   1.2884510000000000       -1.6763587442845411        2.9524663553791299       -4.9464613809802698                0           0           0
         108           1  0.90628100000000000      -0.72700527568131434        2.3945585036180432       -4.7448407846081198                0           0           0
         109           1   1.2439519999999999      -0.38435106737634328        3.3527318149990819       -5.2014056115347547                0           0           0
         110           1  0.85372000000000003      -0.78038826430913311        2.4244390540054770       -5.7210107394293939                0           0           0
         111           1  0.79320299999999999       0.61338686216432858        3.3013856699185986       -5.5997745551333438                0           0           0
         112           1  0.83657099999999995        1.1753105537651773        2.4682374236919369       -4.6489595354851669                0           0           0
         113           1  0.79898800000000003        2.9609919083621961        3.1899027690292563       -4.7864598628737074                0           0           0
         114           1  0.97961900000000002        3.5959835937857125        2.3828382543769084       -4.7900157566864721                0           0           0
         115           1  0.80490099999999998        4.3409827132333323        2.9630500351528308       -5.0311366542245146                0           0           0
         116           1  0.76785300000000001        5.2780933670243027        2.8452250854239232       -5.1958226914848673                0           0           0
         117           1  0.78729899999999997       -4.9525714592250054        4.4945675573117274       -5.4859061842580488                0           0           0
         118           1  0.86933700000000003       -5.5488678704110832        3.5907756515129741       -5.4407769828261436                0           0           0
         119           1   1.4795579999999999       -4.3741741178043636        3.5621469676697508       -5.4163879226402063                0           0           0
         120           1   1.1486650000000000       -3.1798899948218557        4.3813429316372936       -5.0846241757411690                0           0           0
         121           1  0.75789499999999999       -2.3878325831321194        3.7409696292139909       -4.9434054956829696                0           0           0
         122           1  0.80026200000000003       -2.3179543029937828        4.4463661628019491       -5.6178398168825154                0           0           0
         123           1  0.84546600000000005       -1.5261417175694234        3.9538801290001988       -5.5389869373371106                0           0           0
         124           1  0.74727200000000005       -1.2017122720588134        3.8558153990169757       -4.6784941409497858                0           0           0
         125           1   1.1842509999999999       -1.9055706871227680        4.5997515261898023       -4.6970097138423714                0           0           0
         126           1   1.0372950000000001      -0.65458432880847361        4.5076669507140679       -5.4095858894012716                0           0           0
         127           1  0.75573400000000002       0.26227499200456794        4.1575530136924961       -5.1427876154734600                0           0           0
         128           1  0.90554000000000001        1.2392796640539609        4.0865154258785843       -5.6167063257292753                0           0           0
         129           1  0.73019400000000001        1.8126119506416085        4.2099370564368019       -4.6998475782775371                0           0           0
         130           1   1.1501790000000001        2.1523453759256794        3.5465827078318242       -5.3306011881745290                0           0           0
         131           1   1.0361840000000000        3.0245065051639095        4.2507899225642944       -5.0769823147140674                0           0           0
         132           1  0.78415599999999996        3.9305660567595559        3.9089413839004621       -5.1483762327506462                0           0           0
         133           1  0.84128000000000003        4.6845245080211111        4.1828456099638718       -4.6294548114610716                0           0           0
         134           1   1.3047489999999999        4.8101977559293978        3.6878163245488089       -5.6346135762331215                0           0           0
         135           1  0.87163800000000002       -5.3662946810305554        5.3263074925832683       -5.1967754225843503                0           0           0
         136           1   1.1479109999999999       -4.3638043431451301        4.7512107694102799       -4.6933447990144561                0           0           0
         137           1  0.85967499999999997       -3.6090330087064308        5.3439937141002201       -5.0999309461858084                0           0           0
         138           1  0.80051799999999995       -4.4908299920720838        5.3872479989886024       -5.5103529359965373                0           0           0
         139           1   1.1004989999999999       -2.5896694519993786        5.4385291646735840       -5.4110975709761684                0           0           0
         140           1  0.95438500000000004       -1.5402343362167423        5.6887812586316127       -5.1983120741579647                0           0           0
         141           1  0.98720399999999997      -0.35651772312951113        5.6360840236624199       -5.5594091400987935                0           0           0
         142           1  0.86126300000000000       0.22820743679488853        5.0133988629134247       -4.8434360767035152                0           0           0
         143           1  0.79245800000000000        1.0934714473344247        4.6980299943541581       -4.7927493814051658                0           0           0
         144           1   1.2686580000000001        1.9919464399097482        4.9457619764520899       -5.3303558181332278                0           0           0
         145           1  0.86478800000000000        2.9168626903702659        5.2710645728803485       -4.8572844338832679                0           0           0
         146           1  0.73688299999999995        3.1204544783935155        5.0178717811463027       -5.7070276980674608                0           0           0
         147           1   1.4304490000000001        3.9903579874759831        4.9951635937161747       -4.9115687429021406                0           0           0
         148           1  0.76117100000000004        5.1014187206383710        5.0315988234783298       -5.0211895399191588                0           0           0
         149           1  0.81904200000000005        4.6130148554325920        4.8794671374333927        5.6755503156125080                0           0           0
         150           1  0.74355499999999997       -5.1735538662095495       -5.2349502818995166       -3.7933327519298556                0           0           0
         151           1  0.76271500000000003       -3.9031659676309181       -5.0049069785052920       -3.9579288597804050                0           0           0
         152           1  0.76898400000000000       -2.4812387493548105       -4.8042826166211174       -4.0451800432833860                0           0           0
         153           1   1.0236600000000000       -3.1871785196785010       -5.5512860715003409       -3.5166944726338145                0           0           0
         154           1  0.73077700000000001       -1.4869150476805109       -4.8821768193647008       -3.7842353173179211                0           0           0
         155           1   1.1202880000000000       -2.0109023289014538       -5.6724438044448355       -4.1907448274710459                0           0           0
         156           1  0.76807899999999996       -1.1655340163052079       -5.1782052751895238       -4.4995785052314368                0           0           0
         157           1   1.3321630000000000      -0.45030068773453991       -4.9774017351854383       -3.6602158398827718                0           0           0
         158           1  0.80179999999999996       0.65491042350993212       -4.9236966700352252       -3.9441448116043656                0           0           0
         159           1  0.94373200000000002        1.6154518766780495       -5.0634334443821842       -4.0203772465098977                0           0           0
         160           1  0.95481799999999994        3.1735995561441008       -4.6744442469998280       -4.5091383427911147                0           0           0
         161           1   1.4699640000000000        2.7737787515403021       -5.6385905279908464       -3.8564427495771145                0           0           0
         162           1   1.3309860000000000        4.2493454535112019       -5.0890817315969947       -4.0912830057055869                0           0           0
         163           1   1.1672389999999999        5.5642709310876537       -5.5009754459868079       -4.4612489932171266                0           0           0
         164           1  0.96901499999999996       -5.4373857919525603       -4.3965450483045592       -4.4250398781940703                0           0           0
         165           1   1.1382319999999999       -4.6497864944839939       -4.3862889920717354       -3.6066230266075396                0           0           0
         166           1   1.0295930000000000       -5.6917956873270281       -3.7164170852768654       -3.5806640811702408                0           0           0
         167           1  0.75638000000000005       -4.1050611784557871       -3.5530604296770156       -3.8324191164846542                0           0           0
         168           1   1.4976440000000000       -3.2647716868105086       -4.1973789473215177       -3.6176715833517088                0           0           0
         169           1   1.3677140000000001       -1.8445223095946517       -3.9736702893060332       -4.1969142033288147                0           0           0
         170           1  0.87362600000000001      -0.84247145218401798       -4.3022203787919597       -4.4464078417976944                0           0           0
         171           1  0.77448300000000003      -0.48819143520418518       -3.9100980549298621       -3.6612877692973358                0           0           0
         172           1   1.1426689999999999       0.17646601012328933       -4.1531875077490570       -4.4544597575185607                0           0           0
         173           1   1.6053649999999999        1.3744918532560062       -3.8512651320204299       -3.7841202603788462                0           0           0
         174           1  0.81254700000000002        2.3849065070982345       -4.4120124373925105       -4.0153520777470995                0           0           0
         175           1   1.5251770000000000        2.8622180069483480       -3.4506504654952548       -4.4856691362451393                0           0           0
         176           1  0.90739599999999998        3.8972961791141270       -3.9393428193077122       -4.1790686562580275                0           0           0
         177           1  0.91723800000000000        3.4746198069618188       -3.2980218971156994       -3.4595034930127837                0           0           0
         178           1  0.98055700000000001        4.9418842151799698       -4.1401171818057669       -4.2285062118527952                0           0           0
         179           1   1.4378010000000001       -4.9345645166614061       -3.2505735349193108       -4.4134140036688443                0           0           0