LAMMPS data file via write_data, version 17 Nov 2016, timestep = 0
      
  1500 atoms
      
1 atom types
  -5.7235712129999996        5.7235712129999996      xlo xhi
  -5.7235712129999996        5.7235712129999996      ylo yhi
  -5.7235712129999996        5.7235712129999996      zlo zhi
Masses
      
1 1
      
Pair Coeffs # lj/poly
      
                               1 1.0 1.0 2.025 1.25 0.2
      
Atoms # charge
      
           1           1  0.82965299999999997       -5.5457321663132939       -4.8802817489608996       -5.2653200511362765                0           0           0
           2           1   1.5413479999999999       -4.5764832767957317       -5.2699638641786537       -4.7557944139935744                0           0           0
           3           1  0.86062700000000003       -3.7983525219154290       -4.7684279323901277       -5.4890297273567432                0           0           0
           4           1   1.2325940000000000       -3.1695793105382557       -5.2169727825112426       -4.6540604560747409                0           0           0
           5           1  0.92110899999999996       -2.0794575136525935       -4.8981615153319567       -4.9086057910004550                0           0           0
           6           1   1.5043869999999999       -1.0378502776610992       -4.7493982159584966       -5.4720173499267659                0           0           0
           7           1  0.88103100000000001      -0.20341305269303867       -5.1777504606036562       -4.7459995348102426                0           0           0
           8           1  0.92227999999999999       0.28324520037014977       -4.6661903771814472       -5.4684866113893609                0           0           0
           9           1   1.5129459999999999       0.93502663731439117       -5.5144428988888725       -4.9716822657076918                0           0           0
          10           1  0.87097899999999995        2.1185592932809350       -5.5743804018698704       -4.7677945470720928                0           0           0
          11           1  0.82823300000000000        1.9389752197893415       -5.3924202679819384       -5.6924944189761941                0           0           0
          12           1   1.3333429999999999        3.0366283030277632       -5.3214889848878970       -5.5254764933379059                0           0           0
          13           1  0.81986499999999995        4.1252055439734274       -5.3045857931093430       -5.3193974255092531                0           0           0
          14           1  0.74748000000000003        3.5251165926526919       -5.5418896787815042       -4.6389436040076291                0           0           0
          15           1  0.86770400000000003        4.9159497196581814       -4.8160302660387098       -4.9812744289726956                0           0           0
          16           1  0.73948999999999998        4.6904188153620900       -5.6953673454913814       -4.7959905866896326                0           0           0
          17           1   1.1174949999999999       -4.8036704365145564       -4.1457630337980831       -5.5156689126989722                0           0           0
          18           1   1.0167780000000000       -4.0023627143578127       -4.1392623758423008       -4.6441833015033431                0           0           0
          19           1   1.0699300000000000       -2.8283741632918282       -4.0572038722225239       -4.8342457986045480                0           0           0
          20           1  0.76943799999999996       -1.9505110589160024       -4.0809159495299419       -5.3134194764377121                0           0           0
          21           1   1.0829869999999999      -0.25266098468962195       -3.7652832415597937       -5.6914844737968808                0           0           0
          22           1   1.3859269999999999       0.96845987110215148       -3.6929468799218608       -5.3580611360034993                0           0           0
          23           1  0.77240699999999995        1.1051268567757875       -4.4996915488686504       -4.6403911068960637                0           0           0
          24           1   1.1917739999999999        2.0309304328617417       -4.5376183723961203       -5.0012129024565519                0           0           0
          25           1  0.76583000000000001        1.8074055917110243       -3.5396284932339941       -4.7345786675967023                0           0           0
          26           1  0.97774899999999998        2.1607107916430337       -3.5668480789727735       -5.6218947497696048                0           0           0
          27           1  0.83108000000000004        2.9315556198312436       -4.1973876713915690       -5.3774014962522916                0           0           0
          28           1   1.2215430000000000        3.9804129963950476       -4.2734997279919176       -5.2367687403283254                0           0           0
          29           1   1.3806490000000000        5.3929527012131473       -3.8316704874621044       -5.3258646311638076                0           0           0
          30           1   1.0400879999999999       -5.1874525456555176       -2.9444772589150259       -5.6128167884732241                0           0           0
          31           1  0.77126099999999997       -4.2962995520318756       -3.2815533757250779       -5.2701690461088644                0           0           0
          32           1  0.92384800000000000       -4.2743934941964108       -2.3879930504096332       -4.9309551160786667                0           0           0
          33           1  0.88862900000000000       -2.3163960731442046       -3.1286309074110545       -4.8798668809209769                0           0           0
          34           1  0.86158199999999996       -3.0707204842955154       -2.8338128914133813       -5.5311785678742194                0           0           0
          35           1   1.1209890000000000       -1.3309834673220466       -3.3129675838896211       -5.3235104373198503                0           0           0
          36           1   1.2420370000000001      -0.20629462380665853       -2.9445876490802450       -4.7352568366138348                0           0           0
          37           1  0.88274100000000000       -1.0374603477701578       -2.3142935880073470       -5.1660490197577751                0           0           0
          38           1   1.0668899999999999       0.69983090450071295       -2.4531146031195812       -5.4202847811143338                0           0           0
          39           1   1.1892499999999999        1.8749650346035400       -2.5809814917081622       -5.0938428174664496                0           0           0
          40           1  0.78319600000000000        2.8316942256651352       -2.8165384913496005       -5.3723561237137307                0           0           0
          41           1  0.77194799999999997        2.7231270609158589       -2.2979542410226035       -4.5386044957325566                0           0           0
          42           1  0.74873199999999995        3.6638099101090109       -3.3024982796884292       -5.1951969303125862                0           0           0
          43           1   1.0263439999999999        4.5034670155498020       -3.2501647905969442       -4.7632341942714485                0           0           0
          44           1  0.81308199999999997        4.5356573803393232       -2.5157691022998176       -5.4271237399344407                0           0           0
          45           1   1.1161060000000000        3.6525581746561020       -2.3543101892676002       -4.9581731316013951                0           0           0
          46           1   1.2125560000000000        5.4073661624005815       -2.4184422854978314       -4.8859454043878712                0           0           0
          47           1  0.74192100000000005       -4.9845622598423081       -2.0364209411266190       -5.3619559177905769                0           0           0
          48           1  0.91800800000000005       -4.1453282174177764       -1.5505914495759852       -5.5038420571940261                0           0           0
          49           1  0.83222700000000005       -3.2314113923282535       -1.9453904732039011       -5.2794616566999908                0           0           0
          50           1   1.0095200000000000       -2.5258657916456100       -1.2179633135817607       -4.8865377032192674                0           0           0
          51           1   1.4893410000000000       -2.1361174896620687       -2.1865872082560620       -5.5819633856888577                0           0           0
          52           1   1.2179240000000000       -1.3369708858360401       -1.3145247788768941       -4.7747351919609109                0           0           0
          53           1   1.0644769999999999      -0.21485341176971939       -1.6516108403819505       -5.2267862778764620                0           0           0
          54           1   1.3780330000000001       0.97088942077458906       -1.2773520311632272       -5.0313988080379071                0           0           0
          55           1   1.0451729999999999        2.1543478845934745       -1.4335499624709822       -4.8221994662996890                0           0           0
          56           1  0.79520100000000005        3.6436502042990018       -1.3674838912037934       -5.2522283277846737                0           0           0
          57           1   1.0204660000000001        4.4557050118605783       -1.5634841696010611       -4.6081214156978731                0           0           0
          58           1  0.80856499999999998        5.3526831348610528       -1.3714450821870487       -5.0248293454783877                0           0           0
          59           1   1.3538969999999999       -5.0488853780194889       -1.0662372217136582       -4.9834642806643208                0           0           0
          60           1  0.75854699999999997       -4.0576790721651284      -0.67543503260718829       -5.1881655100591901                0           0           0
          61           1  0.73175199999999996       -2.4331831841396667      -0.42673369012300810       -5.3700231723769907                0           0           0
          62           1   1.0328729999999999       -3.2227260007858600      -0.31545003642126712       -4.8626595932680079                0           0           0
          63           1  0.75083299999999997       -1.6053141431027749      -0.29342223872372131       -5.2711916400157914                0           0           0
          64           1  0.82179500000000005       -1.8883227260412316       -1.0726510632282240       -5.6633971922750312                0           0           0
          65           1  0.90665300000000004      -9.40469745528815793E-003 -0.65570685301462550       -4.8710695651546407                0           0           0
          66           1  0.88653700000000002      -0.93560890449395551      -0.29869685187662576       -4.6205813267454356                0           0           0
          67           1   1.1960150000000001       0.61464773905251668      -5.86697328426213360E-002  -5.5103588075434873                0           0           0
          68           1   1.0855290000000000        1.7613803233589849      -0.26022498179119946       -4.9770124741459041                0           0           0
          69           1  0.97821599999999997        2.8733582501438750      -0.73807474462299894       -5.2567799086096194                0           0           0
          70           1   1.4363210000000000        3.8759014568313361      -0.46440912870477202       -4.6855197662118364                0           0           0
          71           1   1.1656560000000000        5.2187381555850560      -0.35545028448597993       -4.9046716900024183                0           0           0
          72           1   1.0241950000000000       -5.1429067407594831       6.12425494292709871E-002  -5.4487006731821479                0           0           0
          73           1  0.83424600000000004       -4.6116649024476164       0.76743260669508828       -4.9669022899186928                0           0           0
          74           1   1.2242780000000000       -5.7184455419936580       0.90426843716431815       -4.8389663326116219                0           0           0
          75           1   1.2615920000000000       -3.9364754640763060       0.26768127645765372       -5.6903595387336496                0           0           0
          76           1  0.96946900000000003       -2.7354674304420130       0.42876557439712926       -5.5149759986267703                0           0           0
          77           1   1.0105480000000000       -3.3831291287623872       0.86244153496381504       -4.7528907177973929                0           0           0
          78           1   1.1696240000000000       -1.6384503162203874       0.71863618150987651       -5.3751173249734601                0           0           0
          79           1  0.91265600000000002       -2.3016444873921285        1.0212992097255107       -4.5821183523661926                0           0           0
          80           1  0.77751099999999995      -0.66652421586368593       0.45492572453546121       -5.3570077579873399                0           0           0
          81           1  0.88239800000000002       0.43381481925553889        1.0324558291706207       -5.3367065869934764                0           0           0
          82           1  0.79924200000000001        1.0781311029559042       0.44274860055021836       -4.6738740289115759                0           0           0
          83           1   1.1011640000000000        1.4543085505256164       0.81662756349596499       -5.6076000673508899                0           0           0
          84           1   1.4763390000000001        2.1767335308386064       0.88568965956121559       -4.5379712412485995                0           0           0
          85           1  0.85063500000000003        2.9572892045361669       0.18677034315482999       -4.8879223026499394                0           0           0
          86           1  0.83979999999999999        3.6427495961856060       0.20947190699406715       -5.5444420279333739                0           0           0
          87           1   1.1119710000000000        4.4781903507463294       0.66411417473310053       -5.0021748456775796                0           0           0
          88           1  0.92940100000000003       -5.4560036993118697        1.9606306254461847       -5.1018867319906773                0           0           0
          89           1  0.98624599999999996       -4.6151040159353824        2.3592586802527507       -5.6288590202650104                0           0           0
          90           1  0.88377099999999997       -3.8557471843037385        1.4273964364235505       -5.5111168247523121                0           0           0
          91           1   1.4289920000000000       -4.4187978026488155        1.7679136333961090       -4.5685545968298236                0           0           0
          92           1   1.2863240000000000       -2.6680490831521086        1.6218703002601798       -5.4909722432329122                0           0           0
          93           1  0.83280200000000004       -3.2629930617471929        1.8655143778029801       -4.5902031437465620                0           0           0
          94           1  0.91532000000000002       -1.5850799260403541        1.8551452575496103       -5.2076756152175934                0           0           0
          95           1   1.0549850000000001      -0.61773032358796698        1.4258964572233479       -5.3300115052689305                0           0           0
          96           1   1.4844250000000001       0.40586428964130050        2.1844995051275280       -5.4316244114634982                0           0           0
          97           1  0.86414400000000002        1.4769154102437918        1.8071772860686117       -5.3059594335284066                0           0           0
          98           1   1.3125690000000001        2.4430064251591332        2.2769360256466875       -5.1455328063817705                0           0           0
          99           1  0.82318199999999997        2.3800316014239176        1.2549540767179534       -5.6261172657984950                0           0           0
         100           1   1.2526790000000001        3.3993894457771567        1.2310802378158519       -5.3633209267944562                0           0           0
         101           1   1.3715560000000000        4.6932661133233591        1.9456388468600228       -5.2169973344209213                0           0           0
         102           1   1.1018300000000001       -5.2705482188882726        2.9240218092395889       -4.6614247674525453                0           0           0
         103           1   1.0932630000000001       -3.5663982287103928        2.4638719021096929       -5.3455495096425745                0           0           0
         104           1  0.91189900000000002       -4.1193456246420492        2.8866130580369713       -4.5152089615002371                0           0           0
         105           1  0.73728300000000002       -2.6100641370429676        2.6442692686393912       -5.2619799057201222                0           0           0
         106           1  0.79696199999999995       -3.3085044076058638        3.4065186151838489       -5.2521953023674710                0           0           0
         107           1   1.2884510000000000       -1.6745119249185780        2.9568161791950747       -4.9490984169017276                0           0           0
         108           1  0.90628100000000000      -0.72709022361323505        2.3954345467732931       -4.7418565284161787                0           0           0
         109           1   1.2439519999999999      -0.38410490554338050        3.3566039305033080       -5.1873596595806646                0           0           0
         110           1  0.85372000000000003      -0.79132780691173465        2.4285335325337236       -5.7169121963798819                0           0           0
         111           1  0.79320299999999999       0.60992927677205966        3.2928361312037921       -5.5586740607936669                0           0           0
         112           1  0.83657099999999995        1.1775847103524955        2.4638599422343805       -4.6474529435835059                0           0           0
         113           1  0.79898800000000003        2.9587507377279252        3.1889695518692225       -4.7802811283483324                0           0           0
         114           1  0.97961900000000002        3.5958278388509726        2.3813915091015367       -4.7874203333485745                0           0           0
         115           1  0.80490099999999998        4.3391715051893787        2.9642364670366383       -5.0320375864572613                0           0           0
         116           1  0.76785300000000001        5.2756552102693028        2.8452517790696259       -5.1965605912475326                0           0           0
         117           1  0.78729899999999997       -4.9507360283095707        4.4973990192651652       -5.4861746369192721                0           0           0
         118           1  0.86933700000000003       -5.5471666298207660        3.5934644885042992       -5.4430793431218039                0           0           0
         119           1   1.4795579999999999       -4.3742019441712632        3.5637387548781536       -5.4188809150162953                0           0           0
         120           1   1.1486650000000000       -3.1768564061338171        4.3853322288204506       -5.0895306398556803                0           0           0
         121           1  0.75789499999999999       -2.3874021042013247        3.7432576970988656       -4.9416351336240627                0           0           0
         122           1  0.80026200000000003       -2.3101800283935328        4.4570425096935793       -5.6260877573753802                0           0           0
         123           1  0.84546600000000005       -1.5195691882644171        3.9670124108975653       -5.5350754066417229                0           0           0
         124           1  0.74727200000000005       -1.2038271532686542        3.8624002763402050       -4.6728427894200095                0           0           0
         125           1   1.1842509999999999       -1.9111875047025659        4.6048747227855582       -4.6960342304636402                0           0           0
         126           1   1.0372950000000001      -0.64194407993435920        4.5097584763280221       -5.4090302099276846                0           0           0
         127           1  0.75573400000000002       0.27945382457863488        4.1565773512963755       -5.1156785832575258                0           0           0
         128           1  0.90554000000000001        1.2347430810178492        4.0940722051976230       -5.5707123808946353                0           0           0
         129           1  0.73019400000000001        1.8140283203704151        4.2096846040166955       -4.6884404850867396                0           0           0
         130           1   1.1501790000000001        2.1514833538051246        3.5465637121232252       -5.3225772552947639                0           0           0
         131           1   1.0361840000000000        3.0264036776582852        4.2479705816936715       -5.0711485736798654                0           0           0
         132           1  0.78415599999999996        3.9329776103072458        3.9105978047028813       -5.1470417323454711                0           0           0
         133           1  0.84128000000000003        4.6857129420508326        4.1843599373535572       -4.6281968827272904                0           0           0
         134           1   1.3047489999999999        4.8121246536755553        3.6903101641864762       -5.6333800633523445                0           0           0
         135           1  0.87163800000000002       -5.3646181348558271        5.3284629011365556       -5.1940560437152472                0           0           0
         136           1   1.1479109999999999       -4.3611093561016592        4.7513400507203301       -4.6947577498602495                0           0           0
         137           1  0.85967499999999997       -3.6085388526620448        5.3523140130266462       -5.0971271146846782                0           0           0
         138           1  0.80051799999999995       -4.4899418874767250        5.3891163110565703       -5.5105042886267928                0           0           0
         139           1   1.1004989999999999       -2.5941035571828128        5.4399239185358912       -5.4170269325243421                0           0           0
         140           1  0.95438500000000004       -1.5527872947883514        5.6784595773096900       -5.1903480334004293                0           0           0
         141           1  0.98720399999999997      -0.35049418892477302        5.6288800126056078       -5.5634946642754448                0           0           0
         142           1  0.86126300000000000       0.22793162030063829        5.0189851620642667       -4.8314660932914473                0           0           0
         143           1  0.79245800000000000        1.0894867801685209        4.6915434463318739       -4.7713047318256105                0           0           0
         144           1   1.2686580000000001        1.9893155607116286        4.9458735844029107       -5.3142184767423704                0           0           0
         145           1  0.86478800000000000        2.9184043287513965        5.2703621557582760       -4.8562014449201572                0           0           0
         146           1  0.73688299999999995        3.1433653843878790        5.0107837724185522       -5.6957977380693512                0           0           0
         147           1   1.4304490000000001        3.9916453591502563        4.9949990479970090       -4.9148077076089161                0           0           0
         148           1  0.76117100000000004        5.1012571448779465        5.0299796728791328       -5.0213389149244136                0           0           0
         149           1  0.81904200000000005        4.6147367487505591        4.8791846121973244        5.6737269739925686                0           0           0
         150           1  0.74355499999999997       -5.1764594152266836       -5.2272861784794431       -3.7867639299783193                0           0           0
         151           1  0.76271500000000003       -3.8962523839529868       -5.0030764918479393       -3.9559910586030744                0           0           0
         152           1  0.76898400000000000       -2.4479397626711838       -4.7699362904476414       -4.0556149824703986                0           0           0
         153           1   1.0236600000000000       -3.1894751630267106       -5.5580166310949979       -3.5154869861993068                0           0           0
         154           1  0.73077700000000001       -1.4932574574496051       -4.9044908842586405       -3.7600194902007082                0           0           0
         155           1   1.1202880000000000       -2.0167399361003149       -5.6655111466957866       -4.1830779822607775                0           0           0
         156           1  0.76807899999999996       -1.1719609432582967       -5.1555347959892117       -4.4928577699296453                0           0           0
         157           1   1.3321630000000000      -0.46980889637963852       -4.9637443631763434       -3.6798496078064016                0           0           0
         158           1  0.80179999999999996       0.67179180648923875       -4.9367955815536355       -3.9330036386036906                0           0           0
         159           1  0.94373200000000002        1.6266823790838956       -5.0591073395382402       -4.0287616210464998                0           0           0
         160           1  0.95481799999999994        3.1745276495785006       -4.6763997314174883       -4.5050366116466893                0           0           0
         161           1   1.4699640000000000        2.7749371063377186       -5.6466742824172806       -3.8535947379486566                0           0           0
         162           1   1.3309860000000000        4.2498682651281214       -5.0905013873619680       -4.0873520505180938                0           0           0
         163           1   1.1672389999999999        5.5673381240668558       -5.4986632700075768       -4.4562936942109008                0           0           0
         164           1  0.96901499999999996       -5.4363332230417347       -4.3994154619843773       -4.4220352699032359                0           0           0
         165           1   1.1382319999999999       -4.6423980090506749       -4.3867382189533437       -3.6087547714830479                0           0           0
         166           1   1.0295930000000000       -5.6912498717172069       -3.7200522552475408       -3.5824942507472430                0           0           0
         167           1  0.75638000000000005       -4.0948481847881464       -3.5624524371811579       -3.8339941679434144                0           0           0
         168           1   1.4976440000000000       -3.2472961538834335       -4.2001787639349084       -3.6130472822315851                0           0           0
         169           1   1.3677140000000001       -1.7363855570920856       -3.9997167373063833       -4.2369302080034199                0           0           0
         170           1  0.87362600000000001      -0.74464910751161639       -3.9557751583624081       -4.7332027404982773                0           0           0
         171           1  0.77448300000000003      -0.48517572532763875       -3.9196473871855804       -3.6441587132301794                0           0           0
         172           1   1.1426689999999999       0.20335748881005866       -4.1793303657872007       -4.4325259637628136                0           0           0
         173           1   1.6053649999999999        1.3774033738295532       -3.8434185329226143       -3.7805610731903023                0           0           0
         174           1  0.81254700000000002        2.3845161453604575       -4.4059673896129699       -4.0195692852422811                0           0           0
         175           1   1.5251770000000000        2.8637557186141152       -3.4509351958876255       -4.4886648936426887                0           0           0
         176           1  0.90739599999999998        3.8964615538741931       -3.9430629588522446       -4.1688322652138936                0           0           0
         177           1  0.91723800000000000        3.4668710421641631       -3.3065428364724316       -3.4526385469726359                0           0           0
         178           1  0.98055700000000001        4.9401634441114446       -4.1427598377662083       -4.2250663808150994                0           0           0
         179           1   1.4378010000000001       -4.9285635961355796       -3.2547145388009122       -4.4098642715562510                0           0           0