LAMMPS data file via write_data, version 17 Nov 2016, timestep = 0
      
  1500 atoms
      
1 atom types
  -5.7235712129999996        5.7235712129999996      xlo xhi
  -5.7235712129999996        5.7235712129999996      ylo yhi
  -5.7235712129999996        5.7235712129999996      zlo zhi
Masses
      
1 1
      
Pair Coeffs # lj/poly
      
                               1 1.0 1.0 2.025 1.25 0.2
      
Atoms # charge
      
           1           1  0.82965299999999997       -5.5431198864327680       -4.8805784305851425       -5.2641507636998917                0           0           0
           2           1   1.5413479999999999       -4.5756879016710190       -5.2694610353418456       -4.7547715734621994                0           0           0
           3           1  0.86062700000000003       -3.7993958242750825       -4.7696978238852328       -5.4906193933017153                0           0           0
           4           1   1.2325940000000000       -3.1680034309846303       -5.2185649364758540       -4.6548042381110442                0           0           0
           5           1  0.92110899999999996       -2.0795545603704348       -4.9005736598758087       -4.9113675570186732                0           0           0
           6           1   1.5043869999999999       -1.0368595380363699       -4.7426366779745628       -5.4669094235659497                0           0           0
           7           1  0.88103100000000001      -0.20186692770180326       -5.1862395077344994       -4.7526810929711241                0           0           0
           8           1  0.92227999999999999       0.28383478909941040       -4.6634759800851073       -5.4675720488531878                0           0           0
           9           1   1.5129459999999999       0.93996206961068918       -5.5092571304325029       -4.9721405330561703                0           0           0
          10           1  0.87097899999999995        2.1216215269960728       -5.5723637451366033       -4.7687955412082488                0           0           0
          11           1  0.82823300000000000        1.9430657636787805       -5.3892928176812864       -5.6924494602808720                0           0           0
          12           1   1.3333429999999999        3.0423552037085582       -5.3167570169056875       -5.5235215688243713                0           0           0
          13           1  0.81986499999999995        4.1308357248254293       -5.3012339031025801       -5.3180923966738076                0           0           0
          14           1  0.74748000000000003        3.5282260289827292       -5.5411942753450854       -4.6379842965295728                0           0           0
          15           1  0.86770400000000003        4.9255631190930789       -4.8173250403281820       -4.9768117893685613                0           0           0
          16           1  0.73948999999999998        4.6928511980637087       -5.6962366863330240       -4.7948826352178884                0           0           0
          17           1   1.1174949999999999       -4.8010697102369706       -4.1483356789248491       -5.5207760647192696                0           0           0
          18           1   1.0167780000000000       -3.9993028157118333       -4.1410265771678487       -4.6460565259940418                0           0           0
          19           1   1.0699300000000000       -2.8280763472032691       -4.0580011747017686       -4.8343261156370048                0           0           0
          20           1  0.76943799999999996       -1.9517202843948205       -4.0804897684307848       -5.3127208457569575                0           0           0
          21           1   1.0829869999999999      -0.25095536284981712       -3.7620571526089108       -5.6902182704423243                0           0           0
          22           1   1.3859269999999999       0.96995390554862748       -3.6916444974046638       -5.3569974032207996                0           0           0
          23           1  0.77240699999999995        1.1100279752500377       -4.4962168179324769       -4.6396390423408658                0           0           0
          24           1   1.1917739999999999        2.0358705148883214       -4.5350519510862375       -5.0014009516384421                0           0           0
          25           1  0.76583000000000001        1.8063322329568825       -3.5382967662901605       -4.7332690359875658                0           0           0
          26           1  0.97774899999999998        2.1644218128650037       -3.5647934203407217       -5.6199578198811730                0           0           0
          27           1  0.83108000000000004        2.9410868540033466       -4.1952697530939602       -5.3732026295799749                0           0           0
          28           1   1.2215430000000000        3.9946129918819580       -4.2698833368600440       -5.2285057604642251                0           0           0
          29           1   1.3806490000000000        5.3910880010164455       -3.8288388411826535       -5.3248227798776968                0           0           0
          30           1   1.0400879999999999       -5.1679580527065854       -2.9693414481340619       -5.6253522787604702                0           0           0
          31           1  0.77126099999999997       -4.2851611731426669       -3.2865291914990289       -5.2646458011272905                0           0           0
          32           1  0.92384800000000000       -4.2808063964869767       -2.3915568347896392       -4.9335342274549898                0           0           0
          33           1  0.88862900000000000       -2.3164303518295357       -3.1292427164955008       -4.8803549324864219                0           0           0
          34           1  0.86158199999999996       -3.0692622162763765       -2.8354582772235220       -5.5348130697779441                0           0           0
          35           1   1.1209890000000000       -1.3310240513067448       -3.3128493699908490       -5.3232580153264584                0           0           0
          36           1   1.2420370000000001      -0.20735793574570316       -2.9435057235847366       -4.7335264745117920                0           0           0
          37           1  0.88274100000000000       -1.0383124836925921       -2.3137506007201010       -5.1656107233035220                0           0           0
          38           1   1.0668899999999999       0.69664864890217792       -2.4524548097948715       -5.4199430377621978                0           0           0
          39           1   1.1892499999999999        1.8681623752913410       -2.5789241606515216       -5.0918877067858901                0           0           0
          40           1  0.78319600000000000        2.8156022843919128       -2.8167682743565234       -5.3744119278707094                0           0           0
          41           1  0.77194799999999997        2.7163216589735857       -2.2960758016732274       -4.5390023744018144                0           0           0
          42           1  0.74873199999999995        3.6785718627859048       -3.3157920146314077       -5.1752113899372807                0           0           0
          43           1   1.0263439999999999        4.5226101967136128       -3.2059538957792002       -4.7452556038956288                0           0           0
          44           1  0.81308199999999997        4.5548709843898045       -2.4858800356472899       -5.4121276115273886                0           0           0
          45           1   1.1161060000000000        3.6390563123333752       -2.3695031396128940       -4.9663950470894171                0           0           0
          46           1   1.2125560000000000        5.4707337015581352       -2.4259589619302857       -4.9129817426511373                0           0           0
          47           1  0.74192100000000005       -5.0021099326249310       -2.0557571349322021       -5.3653323217372506                0           0           0
          48           1  0.91800800000000005       -4.1479795753186366       -1.5535639007985207       -5.5045397751302438                0           0           0
          49           1  0.83222700000000005       -3.2331489850629951       -1.9480205867076408       -5.2797507280028944                0           0           0
          50           1   1.0095200000000000       -2.5300916592474123       -1.2193480408263859       -4.8856865062538981                0           0           0
          51           1   1.4893410000000000       -2.1363396193017041       -2.1871116914860762       -5.5818125023204042                0           0           0
          52           1   1.2179240000000000       -1.3396926606564570       -1.3143850584460974       -4.7746830091825752                0           0           0
          53           1   1.0644769999999999      -0.21668377353237656       -1.6501077343372863       -5.2255224687786290                0           0           0
          54           1   1.3780330000000001       0.96944707521650919       -1.2769840380129391       -5.0307232857979436                0           0           0
          55           1   1.0451729999999999        2.1532023563372258       -1.4329777130576780       -4.8224776740657536                0           0           0
          56           1  0.79520100000000005        3.6402919443718442       -1.3770221532072675       -5.2484197946577797                0           0           0
          57           1   1.0204660000000001        4.4254959376824843       -1.5986650400977886       -4.5979834219519269                0           0           0
          58           1  0.80856499999999998        5.3294460721559123       -1.3822735830652952       -5.0105914546878152                0           0           0
          59           1   1.3538969999999999       -5.0620340629081868       -1.0807771502477674       -4.9882471956781291                0           0           0
          60           1  0.75854699999999997       -4.0655807052655852      -0.67969720576917148       -5.1867294170547416                0           0           0
          61           1  0.73175199999999996       -2.4358091265989725      -0.42834623802452665       -5.3695364678531590                0           0           0
          62           1   1.0328729999999999       -3.2276529406794299      -0.31818434676972362       -4.8642462015400358                0           0           0
          63           1  0.75083299999999997       -1.6074755082581271      -0.29500884164559604       -5.2707055488267258                0           0           0
          64           1  0.82179500000000005       -1.8916787614052351       -1.0736270329624471       -5.6626965785937280                0           0           0
          65           1  0.90665300000000004      -1.02864236938033926E-002 -0.65466036138367034       -4.8704474559852997                0           0           0
          66           1  0.88653700000000002      -0.93714817239451342      -0.29964547912597617       -4.6201777148080607                0           0           0
          67           1   1.1960150000000001       0.61339809166817538      -5.79301193720942464E-002  -5.5104646336202743                0           0           0
          68           1   1.0855290000000000        1.7601282793072395      -0.26010304592481237       -4.9766166294090821                0           0           0
          69           1  0.97821599999999997        2.8739777904374240      -0.73941023467309996       -5.2580074330634972                0           0           0
          70           1   1.4363210000000000        3.8772125200106480      -0.47062799048263404       -4.6862084685839811                0           0           0
          71           1   1.1656560000000000        5.2169741232486828      -0.35894863175378777       -4.9091854446847831                0           0           0
          72           1   1.0241950000000000       -5.1387966672950647       5.75469996964068642E-002  -5.4435707921446426                0           0           0
          73           1  0.83424600000000004       -4.6089892668436470       0.76765919038539376       -4.9665081733463428                0           0           0
          74           1   1.2242780000000000       -5.7174784158719598       0.90302864508950975       -4.8401040849846035                0           0           0
          75           1   1.2615920000000000       -3.9364972844756867       0.26594856329948335       -5.6906339349297443                0           0           0
          76           1  0.96946900000000003       -2.7352603742050494       0.42749395930439782       -5.5148806214048500                0           0           0
          77           1   1.0105480000000000       -3.3821664339842581       0.86035305645150739       -4.7531956182425192                0           0           0
          78           1   1.1696240000000000       -1.6372601384792080       0.71728983983086092       -5.3771692642236442                0           0           0
          79           1  0.91265600000000002       -2.3003234242860771        1.0210612970884547       -4.5857853290263906                0           0           0
          80           1  0.77751099999999995      -0.66453096918233090       0.45596620545747246       -5.3574332466125547                0           0           0
          81           1  0.88239800000000002       0.43196515988969431        1.0317292556171669       -5.3367294709478097                0           0           0
          82           1  0.79924200000000001        1.0769181725487478       0.44211927596987266       -4.6739699056903810                0           0           0
          83           1   1.1011640000000000        1.4530694495797309       0.81760380326788784       -5.6078062379357414                0           0           0
          84           1   1.4763390000000001        2.1775061841809338       0.88566198197697421       -4.5391900399981608                0           0           0
          85           1  0.85063500000000003        2.9561076858403652       0.18286583158078162       -4.8856675982095021                0           0           0
          86           1  0.83979999999999999        3.6392519335660616       0.21100862065814674       -5.5419258717684547                0           0           0
          87           1   1.1119710000000000        4.4775591493361482       0.66224560291978474       -5.0030997160763473                0           0           0
          88           1  0.92940100000000003       -5.4532204977141792        1.9608811091878779       -5.0995685283454799                0           0           0
          89           1  0.98624599999999996       -4.6141277353488404        2.3589286081917784       -5.6278387285168758                0           0           0
          90           1  0.88377099999999997       -3.8545023045962719        1.4276083517766667       -5.5101009478820986                0           0           0
          91           1   1.4289920000000000       -4.4174032198712574        1.7670140988132355       -4.5662273741201505                0           0           0
          92           1   1.2863240000000000       -2.6680306345942184        1.6214650034390337       -5.4937010087781033                0           0           0
          93           1  0.83280200000000004       -3.2636271343044010        1.8643398272546028       -4.5946847008004852                0           0           0
          94           1  0.91532000000000002       -1.5855273542541495        1.8540697280437195       -5.2109664546196912                0           0           0
          95           1   1.0549850000000001      -0.61763659345905708        1.4267247312108911       -5.3320858747591462                0           0           0
          96           1   1.4844250000000001       0.40769286153088125        2.1832368150730979       -5.4334273514153102                0           0           0
          97           1  0.86414400000000002        1.4786244543856224        1.8073629259858111       -5.3062239312839834                0           0           0
          98           1   1.3125690000000001        2.4438069754123806        2.2776050499661427       -5.1461937741680845                0           0           0
          99           1  0.82318199999999997        2.3795032342948250        1.2565874931778751       -5.6270451382795308                0           0           0
         100           1   1.2526790000000001        3.3996037202689298        1.2333867826430733       -5.3644474229386558                0           0           0
         101           1   1.3715560000000000        4.6949843399991806        1.9450798176134541       -5.2165467072752962                0           0           0
         102           1   1.1018300000000001       -5.2690096531894639        2.9249837098888829       -4.6604780528823522                0           0           0
         103           1   1.0932630000000001       -3.5653388635669074        2.4647254085209447       -5.3470930943585691                0           0           0
         104           1  0.91189900000000002       -4.1188106125145119        2.8866704575185018       -4.5163376853351149                0           0           0
         105           1  0.73728300000000002       -2.6086823556354983        2.6438143114452330       -5.2636955227244284                0           0           0
         106           1  0.79696199999999995       -3.3081968800223414        3.4073079770044021       -5.2554327867767521                0           0           0
         107           1   1.2884510000000000       -1.6723630701541383        2.9553573517326654       -4.9516869963747618                0           0           0
         108           1  0.90628100000000000      -0.72563118902530910        2.3945491199884774       -4.7432858240170539                0           0           0
         109           1   1.2439519999999999      -0.38139581044911441        3.3551523446835478       -5.1877354883820157                0           0           0
         110           1  0.85372000000000003      -0.79167780114890007        2.4284562770339164       -5.7183214449498845                0           0           0
         111           1  0.79320299999999999       0.61114417243009367        3.2926191441334698       -5.5584880729632005                0           0           0
         112           1  0.83657099999999995        1.1787214282764138        2.4635950674719123       -4.6487314556955646                0           0           0
         113           1  0.79898800000000003        2.9596790036923366        3.1884174641701417       -4.7816369557180138                0           0           0
         114           1  0.97961900000000002        3.5971622354441468        2.3804876264052677       -4.7883475546346590                0           0           0
         115           1  0.80490099999999998        4.3404565785936100        2.9633967440562401       -5.0330864206769510                0           0           0
         116           1  0.76785300000000001        5.2764150192263397        2.8454602255371917       -5.1967741595309924                0           0           0
         117           1  0.78729899999999997       -4.9487069871468332        4.4974298544805773       -5.4850475237107208                0           0           0
         118           1  0.86933700000000003       -5.5463035449675120        3.5937699971455519       -5.4428568784642728                0           0           0
         119           1   1.4795579999999999       -4.3733699435451037        3.5637240518291460       -5.4199431942276943                0           0           0
         120           1   1.1486650000000000       -3.1704899772479447        4.3851494407842058       -5.0922325552784908                0           0           0
         121           1  0.75789499999999999       -2.3811942297514688        3.7440641255227263       -4.9434004453153637                0           0           0
         122           1  0.80026200000000003       -2.3035986325990652        4.4603453222637484       -5.6305698178335870                0           0           0
         123           1  0.84546600000000005       -1.5170170105563026        3.9656337852455046       -5.5360742146610740                0           0           0
         124           1  0.74727200000000005       -1.2016508361121643        3.8603970908088279       -4.6740725776453047                0           0           0
         125           1   1.1842509999999999       -1.9065504950707455        4.6055593869846287       -4.6976713539296719                0           0           0
         126           1   1.0372950000000001      -0.63932088022982470        4.5066762098069795       -5.4084962090212851                0           0           0
         127           1  0.75573400000000002       0.28079317468122422        4.1589652951982909       -5.1138231954240725                0           0           0
         128           1  0.90554000000000001        1.2339519140413593        4.0954872897921977       -5.5697882629740292                0           0           0
         129           1  0.73019400000000001        1.8164738634706756        4.2086447633351849       -4.6919180437208095                0           0           0
         130           1   1.1501790000000001        2.1524295228147521        3.5467392194498366       -5.3252494982406313                0           0           0
         131           1   1.0361840000000000        3.0266209489683291        4.2494440698883960       -5.0723203264946530                0           0           0
         132           1  0.78415599999999996        3.9331760293919942        3.9109784889898354       -5.1472711549492880                0           0           0
         133           1  0.84128000000000003        4.6873472108945009        4.1842313499511832       -4.6280511912988906                0           0           0
         134           1   1.3047489999999999        4.8127921251869274        3.6907086946041012       -5.6330906020505873                0           0           0
         135           1  0.87163800000000002       -5.3610472729283458        5.3271262992958537       -5.1946210385753311                0           0           0
         136           1   1.1479109999999999       -4.3567405314321892        4.7494005229082550       -4.6941947390656047                0           0           0
         137           1  0.85967499999999997       -3.6033913584106427        5.3501649948097221       -5.0975157671219264                0           0           0
         138           1  0.80051799999999995       -4.4861463388258143        5.3891889465920588       -5.5088486813456994                0           0           0
         139           1   1.1004989999999999       -2.5868808663861271        5.4423248106970714       -5.4196657837411850                0           0           0
         140           1  0.95438500000000004       -1.5435347874481087        5.6760485228037272       -5.1868094707853771                0           0           0
         141           1  0.98720399999999997      -0.37637353304874654        5.6264509555069626       -5.5818725757993688                0           0           0
         142           1  0.86126300000000000       0.23511085592926939        5.0234283425176578       -4.8306932873847108                0           0           0
         143           1  0.79245800000000000        1.0931115464760754        4.6903795597890863       -4.7694794380665089                0           0           0
         144           1   1.2686580000000001        1.9899613451303422        4.9479780881221718       -5.3154424425595437                0           0           0
         145           1  0.86478800000000000        2.9199820240878580        5.2722737719715109       -4.8578502329332638                0           0           0
         146           1  0.73688299999999995        3.1471320642124763        5.0119521764476893       -5.6966921619517272                0           0           0
         147           1   1.4304490000000001        3.9929624632432397        4.9948824115983186       -4.9146643127229437                0           0           0
         148           1  0.76117100000000004        5.1028064350525941        5.0288877374682652       -5.0206166634606566                0           0           0
         149           1  0.81904200000000005        4.6163057296368706        4.8801599771847712        5.6741578559239549                0           0           0
         150           1  0.74355499999999997       -5.1767967524927645       -5.2303377848578290       -3.7821428264784815                0           0           0
         151           1  0.76271500000000003       -3.8941052748169200       -5.0037548064912434       -3.9564077685218555                0           0           0
         152           1  0.76898400000000000       -2.4461019760944414       -4.7717800692499077       -4.0567922393331575                0           0           0
         153           1   1.0236600000000000       -3.1877076322979074       -5.5575790984092199       -3.5150532074766581                0           0           0
         154           1  0.73077700000000001       -1.4910690283658283       -4.9042246210059668       -3.7612351847922376                0           0           0
         155           1   1.1202880000000000       -2.0112869047742490       -5.6652971388390467       -4.1830879854040628                0           0           0
         156           1  0.76807899999999996       -1.1660408418444685       -5.1599032947532084       -4.4917530324839312                0           0           0
         157           1   1.3321630000000000      -0.46724744622468339       -4.9651604633120741       -3.6818633841138220                0           0           0
         158           1  0.80179999999999996       0.67789349347341243       -4.9338622599012476       -3.9312626573968221                0           0           0
         159           1  0.94373200000000002        1.6318541048797846       -5.0572891292807460       -4.0282923248362366                0           0           0
         160           1  0.95481799999999994        3.1804953593406005       -4.6729121301673837       -4.5031647578807990                0           0           0
         161           1   1.4699640000000000        2.7771494394305645       -5.6444677668090417       -3.8547774484886403                0           0           0
         162           1   1.3309860000000000        4.2530030023830587       -5.0893794856197063       -4.0873949403235699                0           0           0
         163           1   1.1672389999999999        5.5708580371835144       -5.5043959798090292       -4.4550660520449474                0           0           0
         164           1  0.96901499999999996       -5.4417785209203480       -4.4023615968294854       -4.4191938926444578                0           0           0
         165           1   1.1382319999999999       -4.6419177655071060       -4.3888633618994097       -3.6097191329479208                0           0           0
         166           1   1.0295930000000000       -5.6941726852544381       -3.7203747709428576       -3.5816896142851196                0           0           0
         167           1  0.75638000000000005       -4.0898206693281454       -3.5652041651228337       -3.8325880375955861                0           0           0
         168           1   1.4976440000000000       -3.2449434398074231       -4.2014769359051352       -3.6133473667845295                0           0           0
         169           1   1.3677140000000001       -1.7364957262171057       -3.9996674595057655       -4.2365456034210069                0           0           0
         170           1  0.87362600000000001      -0.74271350616520859       -3.9502259017578747       -4.7286331569384865                0           0           0
         171           1  0.77448300000000003      -0.48374290119596086       -3.9215615121234295       -3.6442317550001326                0           0           0
         172           1   1.1426689999999999       0.20514092972476572       -4.1814273020862371       -4.4334297473729674                0           0           0
         173           1   1.6053649999999999        1.3773850074423617       -3.8431566940789712       -3.7788742610643231                0           0           0
         174           1  0.81254700000000002        2.3875315933960355       -4.4049841970325438       -4.0188662956425993                0           0           0
         175           1   1.5251770000000000        2.8605650491833998       -3.4485067338926045       -4.4868511165123808                0           0           0
         176           1  0.90739599999999998        3.8985464478366048       -3.9334650778930671       -4.1682733466539359                0           0           0
         177           1  0.91723800000000000        3.4628435471242476       -3.3046851355022686       -3.4495235902396653                0           0           0
         178           1  0.98055700000000001        4.9354551788862082       -4.1333032116588662       -4.2282537618640745                0           0           0
         179           1   1.4378010000000001       -4.9222001189830875       -3.2633689887183497       -4.4084994203623662                0           0           0