LAMMPS data file via write_data, version 17 Nov 2016, timestep = 0
      
  1500 atoms
      
1 atom types
  -5.7235712129999996        5.7235712129999996      xlo xhi
  -5.7235712129999996        5.7235712129999996      ylo yhi
  -5.7235712129999996        5.7235712129999996      zlo zhi
Masses
      
1 1
      
Pair Coeffs # lj/poly
      
                               1 1.0 1.0 2.025 1.25 0.2
      
Atoms # charge
      
           1           1  0.82965299999999997       -5.5456967072337235       -4.8806217287027618       -5.2679559392408839                0           0           0
           2           1   1.5413479999999999       -4.5761043047692862       -5.2712574323464985       -4.7574178770155227                0           0           0
           3           1  0.86062700000000003       -3.7989910363720201       -4.7676593108369971       -5.4890080078443058                0           0           0
           4           1   1.2325940000000000       -3.1703210915826832       -5.2169184273086797       -4.6525566811935875                0           0           0
           5           1  0.92110899999999996       -2.0813224373737378       -4.9030817781590574       -4.9120478497692099                0           0           0
           6           1   1.5043869999999999       -1.0394108886337587       -4.7486510015560324       -5.4692591226339369                0           0           0
           7           1  0.88103100000000001      -0.20362425033451892       -5.1784045889344696       -4.7436831198381952                0           0           0
           8           1  0.92227999999999999       0.28091378840545822       -4.6673711695098579       -5.4669567692072150                0           0           0
           9           1   1.5129459999999999       0.93599009254952836       -5.5154978591833208       -4.9732191528088343                0           0           0
          10           1  0.87097899999999995        2.1145466593226585       -5.5801911643072204       -4.7685045952624678                0           0           0
          11           1  0.82823300000000000        1.9346414403905419       -5.3974773830990506       -5.6935926510318744                0           0           0
          12           1   1.3333429999999999        3.0287491847686940       -5.3288018490085562       -5.5315015060225710                0           0           0
          13           1  0.81986499999999995        4.1203758459596092       -5.3088820105447825       -5.3217102356642485                0           0           0
          14           1  0.74748000000000003        3.5229584846311610       -5.5399547264027733       -4.6434914817319077                0           0           0
          15           1  0.86770400000000003        4.9141372295333667       -4.8155386416504475       -4.9850800655619310                0           0           0
          16           1  0.73948999999999998        4.6891662922597082       -5.6951473882916464       -4.7991760477719225                0           0           0
          17           1   1.1174949999999999       -4.8013723178257619       -4.1464003550166826       -5.5145408280299062                0           0           0
          18           1   1.0167780000000000       -4.0004899482492693       -4.1413103893641097       -4.6423674059781943                0           0           0
          19           1   1.0699300000000000       -2.8278730192202128       -4.0578580581963024       -4.8328720586987615                0           0           0
          20           1  0.76943799999999996       -1.9518712036095498       -4.0819463106765177       -5.3117136432142544                0           0           0
          21           1   1.0829869999999999      -0.25372826706622131       -3.7657736577237615       -5.6908359003953359                0           0           0
          22           1   1.3859269999999999       0.96597611003605266       -3.6928956081084143       -5.3534997080417526                0           0           0
          23           1  0.77240699999999995        1.1071635887038163       -4.5021365449538475       -4.6354818713313826                0           0           0
          24           1   1.1917739999999999        2.0318748819716754       -4.5400967310783082       -4.9966049716387815                0           0           0
          25           1  0.76583000000000001        1.8040663548304030       -3.5391938025333785       -4.7304078078737213                0           0           0
          26           1  0.97774899999999998        2.1575626114261421       -3.5652290742264330       -5.6173145138609515                0           0           0
          27           1  0.83108000000000004        2.9281666005844755       -4.1958947261987225       -5.3766591406236115                0           0           0
          28           1   1.2215430000000000        3.9772761922424227       -4.2772307734899728       -5.2470351442362961                0           0           0
          29           1   1.3806490000000000        5.3966516231968118       -3.8333085392320543       -5.3306432619022530                0           0           0
          30           1   1.0400879999999999       -5.1885536975165518       -2.9402622127452438       -5.6140817545044808                0           0           0
          31           1  0.77126099999999997       -4.2985562229661269       -3.2796402376266225       -5.2756727941693260                0           0           0
          32           1  0.92384800000000000       -4.2689875297744173       -2.3893203200299475       -4.9329418119736541                0           0           0
          33           1  0.88862900000000000       -2.3159447963989188       -3.1290695653438561       -4.8781759692987503                0           0           0
          34           1  0.86158199999999996       -3.0716341087633690       -2.8324981018306823       -5.5296073321681467                0           0           0
          35           1   1.1209890000000000       -1.3310251189141358       -3.3141530496720502       -5.3212413164250654                0           0           0
          36           1   1.2420370000000001      -0.20561217053097192       -2.9470663774895396       -4.7314870799897033                0           0           0
          37           1  0.88274100000000000       -1.0365489882733332       -2.3153743709771168       -5.1628966711687170                0           0           0
          38           1   1.0668899999999999       0.70051837786901316       -2.4524449713959711       -5.4143629297508395                0           0           0
          39           1   1.1892499999999999        1.8765256604395262       -2.5794909966590143       -5.0891152991573492                0           0           0
          40           1  0.78319600000000000        2.8337880338373385       -2.8120163115855696       -5.3683514776341799                0           0           0
          41           1  0.77194799999999997        2.7315500652524722       -2.2950891516199858       -4.5421429616785458                0           0           0
          42           1  0.74873199999999995        3.6609251810836945       -3.3028481354339396       -5.1940813389006948                0           0           0
          43           1   1.0263439999999999        4.5051945510328917       -3.2566613108823206       -4.7759973533673676                0           0           0
          44           1  0.81308199999999997        4.5402478395583756       -2.5190247154024314       -5.4352850399631905                0           0           0
          45           1   1.1161060000000000        3.6602685965350243       -2.3487259117350123       -4.9681445556501389                0           0           0
          46           1   1.2125560000000000        5.4059554144367432       -2.4173802642008066       -4.8859216133750873                0           0           0
          47           1  0.74192100000000005       -4.9831004152198020       -2.0332117020235461       -5.3577982646420086                0           0           0
          48           1  0.91800800000000005       -4.1448550385419223       -1.5498562059768108       -5.5033675608604291                0           0           0
          49           1  0.83222700000000005       -3.2298002597073827       -1.9438826437062526       -5.2778693772836229                0           0           0
          50           1   1.0095200000000000       -2.5251547963598435       -1.2181330588747077       -4.8847754370027330                0           0           0
          51           1   1.4893410000000000       -2.1353199380555843       -2.1867632045255880       -5.5797624939356307                0           0           0
          52           1   1.2179240000000000       -1.3363410112117240       -1.3154443422110091       -4.7718133805333220                0           0           0
          53           1   1.0644769999999999      -0.21437557195640444       -1.6511268997707065       -5.2224503429204630                0           0           0
          54           1   1.3780330000000001       0.97076085217961516       -1.2763384651899239       -5.0276840040960682                0           0           0
          55           1   1.0451729999999999        2.1547864675634045       -1.4305237956671233       -4.8237147169908718                0           0           0
          56           1  0.79520100000000005        3.6458556346123796       -1.3593938974843853       -5.2589821333083338                0           0           0
          57           1   1.0204660000000001        4.4597210929753306       -1.5484529496340826       -4.6140895784709537                0           0           0
          58           1  0.80856499999999998        5.3578572767024095       -1.3703587273793572       -5.0313285464598341                0           0           0
          59           1   1.3538969999999999       -5.0463007415890893       -1.0607659250142527       -4.9831490717755988                0           0           0
          60           1  0.75854699999999997       -4.0557055102654553      -0.67428560999550591       -5.1875199787535919                0           0           0
          61           1  0.73175199999999996       -2.4322975907154527      -0.42704674933091624       -5.3679692636899254                0           0           0
          62           1   1.0328729999999999       -3.2212896482465183      -0.31560654348225015       -4.8598171559960832                0           0           0
          63           1  0.75083299999999997       -1.6048616922877885      -0.29459841885329929       -5.2681823980504889                0           0           0
          64           1  0.82179500000000005       -1.8872821770958139       -1.0728085459916468       -5.6614727465116257                0           0           0
          65           1  0.90665300000000004      -9.03721514761723910E-003 -0.65424396020373088       -4.8684323805824965                0           0           0
          66           1  0.88653700000000002      -0.93525262574905454      -0.29813074134490591       -4.6182515437325602                0           0           0
          67           1   1.1960150000000001       0.61574339593107918      -5.82445047931932081E-002  -5.5083486355300177                0           0           0
          68           1   1.0855290000000000        1.7623954504861468      -0.25884834045706473       -4.9776801852816472                0           0           0
          69           1  0.97821599999999997        2.8734691364404696      -0.73438103133512200       -5.2583801212984955                0           0           0
          70           1   1.4363210000000000        3.8754311171334894      -0.45851681754274054       -4.6859318061938176                0           0           0
          71           1   1.1656560000000000        5.2197248539195034      -0.35509813197401119       -4.9036934389725770                0           0           0
          72           1   1.0241950000000000       -5.1445031103218266       6.32306756103284684E-002  -5.4503525104119506                0           0           0
          73           1  0.83424600000000004       -4.6120009155551331       0.76709350852570601       -4.9659433437018752                0           0           0
          74           1   1.2242780000000000       -5.7180187975509478       0.90473307156270266       -4.8375746564970061                0           0           0
          75           1   1.2615920000000000       -3.9365519738945887       0.26749201193961714       -5.6892332288103633                0           0           0
          76           1  0.96946900000000003       -2.7366140694848511       0.42714697113574207       -5.5142348094141171                0           0           0
          77           1   1.0105480000000000       -3.3840063392544248       0.86127903285980967       -4.7513015400954295                0           0           0
          78           1   1.1696240000000000       -1.6395752117155551       0.71694859944421729       -5.3718252509086550                0           0           0
          79           1  0.91265600000000002       -2.3021756386526371        1.0197623086474890       -4.5781168009016167                0           0           0
          80           1  0.77751099999999995      -0.66737264755219083       0.45482960526063554       -5.3551547329487121                0           0           0
          81           1  0.88239800000000002       0.43454014135605323        1.0343410271824869       -5.3356226791048025                0           0           0
          82           1  0.79924200000000001        1.0784849645905767       0.44444701344676574       -4.6717744782870527                0           0           0
          83           1   1.1011640000000000        1.4551695988178972       0.81733440604502317       -5.6066586700230889                0           0           0
          84           1   1.4763390000000001        2.1759294049482882       0.88722916199641055       -4.5370923903814182                0           0           0
          85           1  0.85063500000000003        2.9580583558514757       0.19129516077797071       -4.8897917410239957                0           0           0
          86           1  0.83979999999999999        3.6452538711622022       0.21158306818380890       -5.5462158148045617                0           0           0
          87           1   1.1119710000000000        4.4798079411156415       0.66598599049169671       -5.0014291942880664                0           0           0
          88           1  0.92940100000000003       -5.4564947061981233        1.9607059145066881       -5.1010916314096724                0           0           0
          89           1  0.98624599999999996       -4.6153255076891728        2.3580903074566688       -5.6284748189940208                0           0           0
          90           1  0.88377099999999997       -3.8566739741333320        1.4270768032749706       -5.5097005991501700                0           0           0
          91           1   1.4289920000000000       -4.4194860412642356        1.7676849956648306       -4.5668724778777658                0           0           0
          92           1   1.2863240000000000       -2.6718266034131068        1.6180996700933621       -5.4860127370992240                0           0           0
          93           1  0.83280200000000004       -3.2643812249962236        1.8645974069849096       -4.5867483469299852                0           0           0
          94           1  0.91532000000000002       -1.5866567739938180        1.8512742027518314       -5.2038751990085812                0           0           0
          95           1   1.0549850000000001      -0.61662780193549338        1.4256716971766279       -5.3276568395918096                0           0           0
          96           1   1.4844250000000001       0.40708048783814021        2.1872703025450120       -5.4366191569978186                0           0           0
          97           1  0.86414400000000002        1.4768888866764298        1.8096275576338963       -5.3046922775497105                0           0           0
          98           1   1.3125690000000001        2.4430832954284245        2.2800455487605920       -5.1463987012857295                0           0           0
          99           1  0.82318199999999997        2.3811613473788462        1.2551448818355606       -5.6213355085437886                0           0           0
         100           1   1.2526790000000001        3.4009866107131792        1.2326044381012231       -5.3627194809990524                0           0           0
         101           1   1.3715560000000000        4.6939920290863810        1.9453285705884822       -5.2163541126196531                0           0           0
         102           1   1.1018300000000001       -5.2707292370805474        2.9230829632939663       -4.6589362884824155                0           0           0
         103           1   1.0932630000000001       -3.5677379116843015        2.4636502758228662       -5.3426105556182826                0           0           0
         104           1  0.91189900000000002       -4.1203346399054244        2.8859102369079519       -4.5123238897545761                0           0           0
         105           1  0.73728300000000002       -2.6130891251532642        2.6424022038875030       -5.2576877442187557                0           0           0
         106           1  0.79696199999999995       -3.3075990057801055        3.4064167514085373       -5.2495233090452089                0           0           0
         107           1   1.2884510000000000       -1.6770532638499178        2.9538564058043004       -4.9453837390992028                0           0           0
         108           1  0.90628100000000000      -0.72757176583640337        2.3957123034391969       -4.7436787579345552                0           0           0
         109           1   1.2439519999999999      -0.38461470514029905        3.3536472248961573       -5.1996486755014715                0           0           0
         110           1  0.85372000000000003      -0.78061016170892028        2.4248915282739194       -5.7197957932572274                0           0           0
         111           1  0.79320299999999999       0.61371846915207406        3.3008747678781116       -5.5977984043069284                0           0           0
         112           1  0.83657099999999995        1.1750199750275678        2.4697936283024244       -4.6484279972902831                0           0           0
         113           1  0.79898800000000003        2.9602211124306592        3.1906024260918784       -4.7847824426512213                0           0           0
         114           1  0.97961900000000002        3.5954276817253739        2.3828132411093605       -4.7886692057874569                0           0           0
         115           1  0.80490099999999998        4.3399603821694726        2.9633895137574928       -5.0308632665161621                0           0           0
         116           1  0.76785300000000001        5.2769553549023378        2.8450863947200542       -5.1956011694122672                0           0           0
         117           1  0.78729899999999997       -4.9525714278864594        4.4943599968811068       -5.4869896290423101                0           0           0
         118           1  0.86933700000000003       -5.5487174378998079        3.5913382138545309       -5.4413163472103623                0           0           0
         119           1   1.4795579999999999       -4.3743635900075954        3.5623417536128592       -5.4162885824050671                0           0           0
         120           1   1.1486650000000000       -3.1834703952974555        4.3861212753517442       -5.0830656287016103                0           0           0
         121           1  0.75789499999999999       -2.3900775086706192        3.7439036581733411       -4.9427418353194383                0           0           0
         122           1  0.80026200000000003       -2.3209015539484659        4.4466696099282146       -5.6136108358376706                0           0           0
         123           1  0.84546600000000005       -1.5288391804431658        3.9542980991454009       -5.5370730600394040                0           0           0
         124           1  0.74727200000000005       -1.2037924555699533        3.8582813285321720       -4.6768187467421889                0           0           0
         125           1   1.1842509999999999       -1.9080861187147811        4.6030539983572911       -4.6936830699554788                0           0           0
         126           1   1.0372950000000001      -0.65739522333692335        4.5079943252918362       -5.4081955506066146                0           0           0
         127           1  0.75573400000000002       0.25989324519759904        4.1602201215547741       -5.1393805617543080                0           0           0
         128           1  0.90554000000000001        1.2402723476179283        4.0853657665913374       -5.6161677460317279                0           0           0
         129           1  0.73019400000000001        1.8120753951648636        4.2109824526816109       -4.6965059841841432                0           0           0
         130           1   1.1501790000000001        2.1519911344133797        3.5468769068556654       -5.3280414979216957                0           0           0
         131           1   1.0361840000000000        3.0251558994088779        4.2500079270617803       -5.0755654519386573                0           0           0
         132           1  0.78415599999999996        3.9311033082299520        3.9088057097413920       -5.1477444786351771                0           0           0
         133           1  0.84128000000000003        4.6844050177530310        4.1827447314662081       -4.6291340632098725                0           0           0
         134           1   1.3047489999999999        4.8102846621308561        3.6879410418671981       -5.6343855805042411                0           0           0
         135           1  0.87163800000000002       -5.3645300850292550        5.3259643982855209       -5.1974454358627451                0           0           0
         136           1   1.1479109999999999       -4.3643490559557758        4.7524566247221802       -4.6943900485125987                0           0           0
         137           1  0.85967499999999997       -3.6112938369407792        5.3541154176325918       -5.0964784929912899                0           0           0
         138           1  0.80051799999999995       -4.4900437907766664        5.3886158722237241       -5.5120604795811792                0           0           0
         139           1   1.1004989999999999       -2.5946173457381838        5.4406412220657039       -5.4125267176782499                0           0           0
         140           1  0.95438500000000004       -1.5464585105729975        5.6718149331739784       -5.1905028908448561                0           0           0
         141           1  0.98720399999999997      -0.35229843567556873        5.6288114299065519       -5.5609373901224535                0           0           0
         142           1  0.86126300000000000       0.22876460332719439        5.0184059876977347       -4.8425391247717267                0           0           0
         143           1  0.79245800000000000        1.0929657504068340        4.6998304754483193       -4.7891329736307089                0           0           0
         144           1   1.2686580000000001        1.9916910305827713        4.9443249490473065       -5.3282487910097016                0           0           0
         145           1  0.86478800000000000        2.9173153139015824        5.2699119423253205       -4.8572007149832004                0           0           0
         146           1  0.73688299999999995        3.1211179034073542        5.0175195944599036       -5.7068901081801080                0           0           0
         147           1   1.4304490000000001        3.9908995842597417        4.9951833488961626       -4.9114406598908129                0           0           0
         148           1  0.76117100000000004        5.1014722868361808        5.0308880637296074       -5.0216467433642000                0           0           0
         149           1  0.81904200000000005        4.6133233067547081        4.8790849834993342        5.6753630451394752                0           0           0
         150           1  0.74355499999999997       -5.1720362280286798       -5.2321125244938731       -3.7961260121960683                0           0           0
         151           1  0.76271500000000003       -3.8976325588176008       -5.0024526880156825       -3.9559878620079361                0           0           0
         152           1  0.76898400000000000       -2.4470309917300224       -4.7726481836047627       -4.0563339748829454                0           0           0
         153           1   1.0236600000000000       -3.1895145401566798       -5.5576750564786872       -3.5142150491031114                0           0           0
         154           1  0.73077700000000001       -1.4894785964390911       -4.9073171864526515       -3.7583972247683439                0           0           0
         155           1   1.1202880000000000       -2.0122476717873119       -5.6664499531665440       -4.1835118448940127                0           0           0
         156           1  0.76807899999999996       -1.1663597110802408       -5.1589061152452302       -4.4908184961625661                0           0           0
         157           1   1.3321630000000000      -0.46646804851559498       -4.9666228308351581       -3.6760367936583069                0           0           0
         158           1  0.80179999999999996       0.67609262594334130       -4.9391070838125799       -3.9301600043694571                0           0           0
         159           1  0.94373200000000002        1.6314589069675636       -5.0626840717703603       -4.0209925574427885                0           0           0
         160           1  0.95481799999999994        3.1740637999404342       -4.6750235596159708       -4.5106530166674581                0           0           0
         161           1   1.4699640000000000        2.7751843789670687       -5.6408916495052166       -3.8554519296950165                0           0           0
         162           1   1.3309860000000000        4.2502894417787598       -5.0893555091721518       -4.0921681914687298                0           0           0
         163           1   1.1672389999999999        5.5668183016840178       -5.5017637675432525       -4.4623264628094841                0           0           0
         164           1  0.96901499999999996       -5.4345611423209270       -4.3994558281350509       -4.4246144549558259                0           0           0
         165           1   1.1382319999999999       -4.6441507774196946       -4.3878841534552997       -3.6078120510475133                0           0           0
         166           1   1.0295930000000000       -5.6895419579793849       -3.7185368538643213       -3.5824058479909264                0           0           0
         167           1  0.75638000000000005       -4.0943832801035223       -3.5649613277015408       -3.8318046448031566                0           0           0
         168           1   1.4976440000000000       -3.2459113978587668       -4.2019656915202575       -3.6117996059121062                0           0           0
         169           1   1.3677140000000001       -1.7350259987006775       -4.0040554645529305       -4.2370684425374900                0           0           0
         170           1  0.87362600000000001      -0.74182873761437129       -3.9561868085571517       -4.7314910413242028                0           0           0
         171           1  0.77448300000000003      -0.48065651899428197       -3.9228345567812175       -3.6420601730436686                0           0           0
         172           1   1.1426689999999999       0.20519879561876042       -4.1820837697306823       -4.4279893980521994                0           0           0
         173           1   1.6053649999999999        1.3804733690065216       -3.8465833273541512       -3.7749198684550525                0           0           0
         174           1  0.81254700000000002        2.3882168316786725       -4.4076750060364125       -4.0153915307107466                0           0           0
         175           1   1.5251770000000000        2.8603631664581073       -3.4490288659071933       -4.4870531277848054                0           0           0
         176           1  0.90739599999999998        3.8969736148689602       -3.9391480612927601       -4.1812300983465995                0           0           0
         177           1  0.91723800000000000        3.4753865414062872       -3.2976971509551278       -3.4613249334142870                0           0           0
         178           1  0.98055700000000001        4.9432517234432716       -4.1407398388350067       -4.2287797052672147                0           0           0
         179           1   1.4378010000000001       -4.9243321230806831       -3.2566395662590382       -4.4126354959737997                0           0           0