LAMMPS data file via write_data, version 17 Nov 2016, timestep = 0
      
  1500 atoms
      
1 atom types
  -5.7235712129999996        5.7235712129999996      xlo xhi
  -5.7235712129999996        5.7235712129999996      ylo yhi
  -5.7235712129999996        5.7235712129999996      zlo zhi
Masses
      
1 1
      
Pair Coeffs # lj/poly
      
                               1 1.0 1.0 2.025 1.25 0.2
      
Atoms # charge
      
           1           1  0.82965299999999997       -5.5418209167773007       -4.8819291412112982       -5.2661613250770793                0           0           0
           2           1   1.5413479999999999       -4.5745139523257423       -5.2717735225779636       -4.7565085529074098                0           0           0
           3           1  0.86062700000000003       -3.7958848860915522       -4.7720123071785814       -5.4909193761640642                0           0           0
           4           1   1.2325940000000000       -3.1680173422126923       -5.2183993541541671       -4.6519850814998280                0           0           0
           5           1  0.92110899999999996       -2.0775308368510697       -4.9042164131989203       -4.9091740163544078                0           0           0
           6           1   1.5043869999999999       -1.0378175639766232       -4.7552147926464023       -5.4724712640563213                0           0           0
           7           1  0.88103100000000001      -0.20199933210775534       -5.1716609320013376       -4.7393738847574074                0           0           0
           8           1  0.92227999999999999       0.28234574014961122       -4.6671851135149769       -5.4678367528049563                0           0           0
           9           1   1.5129459999999999       0.93735116104553917       -5.5139143348380051       -4.9749117334271942                0           0           0
          10           1  0.87097899999999995        2.1158527685452500       -5.5784571759140862       -4.7693468085111412                0           0           0
          11           1  0.82823300000000000        1.9394529429580674       -5.3952731929208202       -5.6935174089929381                0           0           0
          12           1   1.3333429999999999        3.0345549526222388       -5.3240666535616032       -5.5299366579470268                0           0           0
          13           1  0.81986499999999995        4.1261064928030127       -5.3073296573540851       -5.3193357250727367                0           0           0
          14           1  0.74748000000000003        3.5258334904265709       -5.5389942581705585       -4.6424597559872121                0           0           0
          15           1  0.86770400000000003        4.9249818952212134       -4.8177618807114069       -4.9800748488430937                0           0           0
          16           1  0.73948999999999998        4.6920656426430707       -5.6968302263397161       -4.7973051210251807                0           0           0
          17           1   1.1174949999999999       -4.7970285686452812       -4.1502951116153444       -5.5211245092586125                0           0           0
          18           1   1.0167780000000000       -3.9941129268497892       -4.1454160701259868       -4.6456001852956330                0           0           0
          19           1   1.0699300000000000       -2.8234617986051007       -4.0604540548053789       -4.8345447482785424                0           0           0
          20           1  0.76943799999999996       -1.9468860336252889       -4.0854938333797799       -5.3133309967548898                0           0           0
          21           1   1.0829869999999999      -0.25368553163840080       -3.7671079667493221       -5.6916946532204875                0           0           0
          22           1   1.3859269999999999       0.96702940755218325       -3.6925593309699485       -5.3535685233945243                0           0           0
          23           1  0.77240699999999995        1.1100102943502943       -4.5012122503615721       -4.6363502809741739                0           0           0
          24           1   1.1917739999999999        2.0362853492716546       -4.5378736203624257       -4.9969800727099170                0           0           0
          25           1  0.76583000000000001        1.8030986169182306       -3.5380824442179502       -4.7296706107813336                0           0           0
          26           1  0.97774899999999998        2.1621906303410725       -3.5634123524248977       -5.6150532763723255                0           0           0
          27           1  0.83108000000000004        2.9384120685200372       -4.1937253701137021       -5.3720411848646243                0           0           0
          28           1   1.2215430000000000        3.9935999890621030       -4.2754721858063540       -5.2399654836597467                0           0           0
          29           1   1.3806490000000000        5.3948251617864145       -3.8309772186421602       -5.3275687048104592                0           0           0
          30           1   1.0400879999999999       -5.1625953949511665       -2.9723470604066828       -5.6279668416678064                0           0           0
          31           1  0.77126099999999997       -4.2796704904854499       -3.2895653754903202       -5.2679946304599694                0           0           0
          32           1  0.92384800000000000       -4.2761263893901820       -2.3966617791182201       -4.9356116704174555                0           0           0
          33           1  0.88862900000000000       -2.3140213343503384       -3.1308224459129583       -4.8787785379639077                0           0           0
          34           1  0.86158199999999996       -3.0680863974876518       -2.8371654027340325       -5.5341769226357860                0           0           0
          35           1   1.1209890000000000       -1.3294075571121047       -3.3153056120821440       -5.3206739183508587                0           0           0
          36           1   1.2420370000000001      -0.20654667863689724       -2.9484598307021410       -4.7305197914289483                0           0           0
          37           1  0.88274100000000000       -1.0371957892493260       -2.3157519254791525       -5.1624427676133315                0           0           0
          38           1   1.0668899999999999       0.69663007443270963       -2.4524089592899356       -5.4143041792961339                0           0           0
          39           1   1.1892499999999999        1.8673138743336155       -2.5775148806643129       -5.0866795450239763                0           0           0
          40           1  0.78319600000000000        2.8109049994011315       -2.8147981984094219       -5.3745172410578075                0           0           0
          41           1  0.77194799999999997        2.7214802069772528       -2.2913761528162513       -4.5436632451481955                0           0           0
          42           1  0.74873199999999995        3.6790843212815467       -3.3230738602171748       -5.1717876478108646                0           0           0
          43           1   1.0263439999999999        4.5279038190181637       -3.2042869471119837       -4.7574980113183480                0           0           0
          44           1  0.81308199999999997        4.5617943300644814       -2.4807621028914273       -5.4164541411926610                0           0           0
          45           1   1.1161060000000000        3.6405523084851250       -2.3725360758652370       -4.9792115756292539                0           0           0
          46           1   1.2125560000000000        5.4816940856017471       -2.4296891509800322       -4.9160162323860712                0           0           0
          47           1  0.74192100000000005       -5.0022601608744512       -2.0582900286211006       -5.3621648664208852                0           0           0
          48           1  0.91800800000000005       -4.1494316360493091       -1.5557042825406615       -5.5036472189291832                0           0           0
          49           1  0.83222700000000005       -3.2327490947683901       -1.9499947522901326       -5.2779308963982281                0           0           0
          50           1   1.0095200000000000       -2.5305981901602239       -1.2209736650696907       -4.8832731058145118                0           0           0
          51           1   1.4893410000000000       -2.1355526912700782       -2.1882566726934116       -5.5790944161608413                0           0           0
          52           1   1.2179240000000000       -1.3396577248480925       -1.3166027714088964       -4.7712674667253543                0           0           0
          53           1   1.0644769999999999      -0.21669977636992410       -1.6500866900404434       -5.2212184582823431                0           0           0
          54           1   1.3780330000000001       0.96837771505806636       -1.2762558827285231       -5.0266252902593642                0           0           0
          55           1   1.0451729999999999        2.1527313186839336       -1.4303063048548967       -4.8242733052383571                0           0           0
          56           1  0.79520100000000005        3.6393472207006088       -1.3735553993303373       -5.2534951198359865                0           0           0
          57           1   1.0204660000000001        4.4129735951963305       -1.5957558866011521       -4.6023953964905431                0           0           0
          58           1  0.80856499999999998        5.3245700447014510       -1.3861350647665889       -5.0072711569089146                0           0           0
          59           1   1.3538969999999999       -5.0646745086015095       -1.0804072185452132       -4.9890080239080383                0           0           0
          60           1  0.75854699999999997       -4.0662633339437360      -0.68151978066591568       -5.1849475850344824                0           0           0
          61           1  0.73175199999999996       -2.4360807811248679      -0.43015251197955795       -5.3668274293220826                0           0           0
          62           1   1.0328729999999999       -3.2279188836217276      -0.32012597101974194       -4.8611149305257912                0           0           0
          63           1  0.75083299999999997       -1.6080791805953512      -0.29612989493036146       -5.2676643383517714                0           0           0
          64           1  0.82179500000000005       -1.8910485256626179       -1.0747233969762480       -5.6598905191113884                0           0           0
          65           1  0.90665300000000004      -1.05496666718511989E-002 -0.65334514493312668       -4.8676710310677365                0           0           0
          66           1  0.88653700000000002      -0.93764405465250622      -0.29998212472079455       -4.6177441590935135                0           0           0
          67           1   1.1960150000000001       0.61344935897968167      -5.72727094301654915E-002  -5.5084157001158918                0           0           0
          68           1   1.0855290000000000        1.7600695176638199      -0.25894033310948217       -4.9769220599480466                0           0           0
          69           1  0.97821599999999997        2.8737137065800038      -0.73659204092844544       -5.2597778648762610                0           0           0
          70           1   1.4363210000000000        3.8766293610959384      -0.46702607799359619       -4.6865353428199343                0           0           0
          71           1   1.1656560000000000        5.2166551504213512      -0.36014967131067710       -4.9097373444189394                0           0           0
          72           1   1.0241950000000000       -5.1391805814262472       5.78568290344678715E-002  -5.4431303175996941                0           0           0
          73           1  0.83424600000000004       -4.6086566690706192       0.76669602970252448       -4.9650565168552694                0           0           0
          74           1   1.2242780000000000       -5.7174987744534311       0.90244218316881941       -4.8388691035337112                0           0           0
          75           1   1.2615920000000000       -3.9367285491152000       0.26418881666546490       -5.6891392355741193                0           0           0
          76           1  0.96946900000000003       -2.7366048714698321       0.42483545149648805       -5.5130959717333212                0           0           0
          77           1   1.0105480000000000       -3.3837972319064886       0.85815783286117586       -4.7513007432968060                0           0           0
          78           1   1.1696240000000000       -1.6386721827959922       0.71582646314639931       -5.3738067840764829                0           0           0
          79           1  0.91265600000000002       -2.3016649877932451        1.0182949581273313       -4.5818261362734543                0           0           0
          80           1  0.77751099999999995      -0.66574745959271819       0.45602784512591832       -5.3562619638532869                0           0           0
          81           1  0.88239800000000002       0.43134447723687508        1.0347518586444222       -5.3358352668855469                0           0           0
          82           1  0.79924200000000001        1.0763432133060542       0.44354597300497112       -4.6716810467988363                0           0           0
          83           1   1.1011640000000000        1.4527127654622474       0.81898238202247065       -5.6063188691550137                0           0           0
          84           1   1.4763390000000001        2.1762819614875637       0.88700525577325795       -4.5382409943848838                0           0           0
          85           1  0.85063500000000003        2.9557352730354527       0.18578887751997453       -4.8864925331813893                0           0           0
          86           1  0.83979999999999999        3.6394709926645881       0.21324514194137034       -5.5426848161543072                0           0           0
          87           1   1.1119710000000000        4.4781599410887996       0.66293873700906047       -5.0025873127602116                0           0           0
          88           1  0.92940100000000003       -5.4533308036894672        1.9603821832679245       -5.0975111397839354                0           0           0
          89           1  0.98624599999999996       -4.6144718938047147        2.3568768004759129       -5.6270602280127422                0           0           0
          90           1  0.88377099999999997       -3.8554731249538876        1.4264938346074132       -5.5083048186607932                0           0           0
          91           1   1.4289920000000000       -4.4181853879540025        1.7659045995575946       -4.5640065707054784                0           0           0
          92           1   1.2863240000000000       -2.6718044081044101        1.6171249995653403       -5.4884321939778857                0           0           0
          93           1  0.83280200000000004       -3.2652623335644182        1.8625645437771894       -4.5910145562007143                0           0           0
          94           1  0.91532000000000002       -1.5872803868316083        1.8512566164498763       -5.2073470399795880                0           0           0
          95           1   1.0549850000000001      -0.61714432525594987        1.4269256128180690       -5.3299485710308057                0           0           0
          96           1   1.4844250000000001       0.40728974390459083        2.1880125036203202       -5.4381570056979225                0           0           0
          97           1  0.86414400000000002        1.4767658823917431        1.8111243134299082       -5.3054865892950680                0           0           0
          98           1   1.3125690000000001        2.4430374242954223        2.2799813710688941       -5.1463895826666697                0           0           0
          99           1  0.82318199999999997        2.3798656750352265        1.2568188803717462       -5.6224165062955196                0           0           0
         100           1   1.2526790000000001        3.4003720512089899        1.2351158805962461       -5.3635549282728956                0           0           0
         101           1   1.3715560000000000        4.6956219703809268        1.9438510631010537       -5.2152922117939431                0           0           0
         102           1   1.1018300000000001       -5.2700388228081527        2.9237807075805957       -4.6574599598492465                0           0           0
         103           1   1.0932630000000001       -3.5669780149771952        2.4636990260688520       -5.3436948895095835                0           0           0
         104           1  0.91189900000000002       -4.1203216660183148        2.8849608653908909       -4.5126223513055193                0           0           0
         105           1  0.73728300000000002       -2.6119567936675994        2.6411063249132063       -5.2592649597316097                0           0           0
         106           1  0.79696199999999995       -3.3071479368621950        3.4061081787253862       -5.2518900874131642                0           0           0
         107           1   1.2884510000000000       -1.6759836280018376        2.9536795322329663       -4.9480052978000719                0           0           0
         108           1  0.90628100000000000      -0.72733842960730666        2.3960333491593513       -4.7454879336360527                0           0           0
         109           1   1.2439519999999999      -0.38416419428813686        3.3552495854983029       -5.2005369930331007                0           0           0
         110           1  0.85372000000000003      -0.78149199931560975        2.4263332185038546       -5.7214819924555185                0           0           0
         111           1  0.79320299999999999       0.61379356716873446        3.3019681692888625       -5.5985828045700421                0           0           0
         112           1  0.83657099999999995        1.1744452119431052        2.4691823645140758       -4.6483021473352473                0           0           0
         113           1  0.79898800000000003        2.9612645664401107        3.1888210181063403       -4.7854176604159608                0           0           0
         114           1  0.97961900000000002        3.5961630921540024        2.3808833404219349       -4.7888813296591524                0           0           0
         115           1  0.80490099999999998        4.3405201715544965        2.9616375762159546       -5.0317137680834607                0           0           0
         116           1  0.76785300000000001        5.2772433621040573        2.8444498308412722       -5.1952547847178270                0           0           0
         117           1  0.78729899999999997       -4.9510981550672115        4.4929546354184833       -5.4863958743805252                0           0           0
         118           1  0.86933700000000003       -5.5477022058473988        3.5914129570167628       -5.4410015532115370                0           0           0
         119           1   1.4795579999999999       -4.3736655575782049        3.5613769048787507       -5.4164222292875497                0           0           0
         120           1   1.1486650000000000       -3.1826177734529706        4.3848874335847121       -5.0827116612113770                0           0           0
         121           1  0.75789499999999999       -2.3871516693302999        3.7450273904497564       -4.9453556742675717                0           0           0
         122           1  0.80026200000000003       -2.3195628450608985        4.4448982838391693       -5.6125799360218327                0           0           0
         123           1  0.84546600000000005       -1.5257625652476747        3.9553176002510408       -5.5379583073635565                0           0           0
         124           1  0.74727200000000005       -1.2032024550561289        3.8572529851812742       -4.6776046709314762                0           0           0
         125           1   1.1842509999999999       -1.9055221094641408        4.6029271571257215       -4.6928176468683613                0           0           0
         126           1   1.0372950000000001      -0.65533056726705752        4.5113984774541294       -5.4085438170683906                0           0           0
         127           1  0.75573400000000002       0.26090879672265110        4.1608684371615006       -5.1391887479229785                0           0           0
         128           1  0.90554000000000001        1.2430044221707712        4.0842622767888574       -5.6167232570128993                0           0           0
         129           1  0.73019400000000001        1.8136659229380365        4.2096858097677714       -4.7000659755774539                0           0           0
         130           1   1.1501790000000001        2.1542991039617414        3.5460027377314969       -5.3300467870906552                0           0           0
         131           1   1.0361840000000000        3.0256069497691538        4.2512595526078858       -5.0755699448356042                0           0           0
         132           1  0.78415599999999996        3.9311862508186639        3.9085689421293850       -5.1474518849489410                0           0           0
         133           1  0.84128000000000003        4.6850456254572794        4.1820634600581190       -4.6283220059232058                0           0           0
         134           1   1.3047489999999999        4.8109866188129367        3.6876514372375500       -5.6333292466587750                0           0           0
         135           1  0.87163800000000002       -5.3611016033205221        5.3230144519661398       -5.1968967712762213                0           0           0
         136           1   1.1479109999999999       -4.3627279251138891        4.7500749151246282       -4.6933067000197246                0           0           0
         137           1  0.85967499999999997       -3.6111833046441144        5.3536076979587115       -5.0957042600465758                0           0           0
         138           1  0.80051799999999995       -4.4875189159140696        5.3881495742529548       -5.5112500042395522                0           0           0
         139           1   1.1004989999999999       -2.5951008524957819        5.4371566755282430       -5.4117418729525717                0           0           0
         140           1  0.95438500000000004       -1.5481001817745215        5.6699069920559033       -5.1904177131357851                0           0           0
         141           1  0.98720399999999997      -0.33234813878870550        5.6312975618680881       -5.5501222886075876                0           0           0
         142           1  0.86126300000000000       0.23061716898988838        5.0190203855613511       -4.8424953336044316                0           0           0
         143           1  0.79245800000000000        1.0945161092342595        4.6992479594101511       -4.7891935948604489                0           0           0
         144           1   1.2686580000000001        1.9925680562421189        4.9456376740775063       -5.3289651004942558                0           0           0
         145           1  0.86478800000000000        2.9185147258318214        5.2721814200816901       -4.8584891472197391                0           0           0
         146           1  0.73688299999999995        3.1264568020216696        5.0177925356637729       -5.7062097355077732                0           0           0
         147           1   1.4304490000000001        3.9919379485678697        4.9950363564789271       -4.9112871815024359                0           0           0
         148           1  0.76117100000000004        5.1030149391470285        5.0292051112844440       -5.0207481494975683                0           0           0
         149           1  0.81904200000000005        4.6151210089344854        4.8800550599738113        5.6760627053774524                0           0           0
         150           1  0.74355499999999997       -5.1724807079372059       -5.2335676194919829       -3.7923620856246933                0           0           0
         151           1  0.76271500000000003       -3.8952805225987008       -5.0043985641390192       -3.9556061198674985                0           0           0
         152           1  0.76898400000000000       -2.4448445013796620       -4.7748498132252202       -4.0547163977825678                0           0           0
         153           1   1.0236600000000000       -3.1881899128399649       -5.5593494462622974       -3.5131314626672627                0           0           0
         154           1  0.73077700000000001       -1.4875467015610084       -4.9096666731256260       -3.7550668086262076                0           0           0
         155           1   1.1202880000000000       -2.0098461752285206       -5.6677440545850688       -4.1815501670624560                0           0           0
         156           1  0.76807899999999996       -1.1658924427241137       -5.1557156970666682       -4.4899219126649523                0           0           0
         157           1   1.3321630000000000      -0.46470930985392478       -4.9653015495698778       -3.6730797084755347                0           0           0
         158           1  0.80179999999999996       0.68006698493543727       -4.9362413687320430       -3.9288478382410816                0           0           0
         159           1  0.94373200000000002        1.6349042856625164       -5.0610510348054483       -4.0206318018406630                0           0           0
         160           1  0.95481799999999994        3.1808955569999817       -4.6706507562287598       -4.5092050487690365                0           0           0
         161           1   1.4699640000000000        2.7769179940455579       -5.6382429730586416       -3.8569680928814591                0           0           0
         162           1   1.3309860000000000        4.2536327876188835       -5.0880797386304897       -4.0924946424148922                0           0           0
         163           1   1.1672389999999999        5.5706173952156615       -5.5086737116902160       -4.4605829756210946                0           0           0
         164           1  0.96901499999999996       -5.4403816521005384       -4.4049621431297776       -4.4204526053651287                0           0           0
         165           1   1.1382319999999999       -4.6424202526268523       -4.3904137329755137       -3.6084329348152275                0           0           0
         166           1   1.0295930000000000       -5.6918993139677214       -3.7216094680523284       -3.5807423022778155                0           0           0
         167           1  0.75638000000000005       -4.0873288565996386       -3.5683468564687484       -3.8302737306362955                0           0           0
         168           1   1.4976440000000000       -3.2431523381661069       -4.2038395450162369       -3.6118280431392900                0           0           0
         169           1   1.3677140000000001       -1.7324036354915493       -4.0068937444268453       -4.2362478293439176                0           0           0
         170           1  0.87362600000000001      -0.74066987367701653       -3.9617651706332140       -4.7342484384233483                0           0           0
         171           1  0.77448300000000003      -0.48037163939794869       -3.9220977935552095       -3.6392526041406583                0           0           0
         172           1   1.1426689999999999       0.20723646715550625       -4.1805946605527318       -4.4265441159000671                0           0           0
         173           1   1.6053649999999999        1.3808560810417081       -3.8470344804961738       -3.7742235377127815                0           0           0
         174           1  0.81254700000000002        2.3911025909864740       -4.4065902055723196       -4.0155510374876648                0           0           0
         175           1   1.5251770000000000        2.8577256533974040       -3.4447380099985891       -4.4853082898911323                0           0           0
         176           1  0.90739599999999998        3.9008348688450507       -3.9263963425153974       -4.1836976574358236                0           0           0
         177           1  0.91723800000000000        3.4725393039040764       -3.2947003118921279       -3.4584451987260638                0           0           0
         178           1  0.98055700000000001        4.9379849876301023       -4.1307669272409040       -4.2319815926376521                0           0           0
         179           1   1.4378010000000001       -4.9156555726263189       -3.2703291374521126       -4.4118017506932894                0           0           0