LAMMPS data file via write_data, version 17 Nov 2016, timestep = 0
      
  1500 atoms
      
1 atom types
  -5.7235712129999996        5.7235712129999996      xlo xhi
  -5.7235712129999996        5.7235712129999996      ylo yhi
  -5.7235712129999996        5.7235712129999996      zlo zhi
Masses
      
1 1
      
Pair Coeffs # lj/poly
      
                               1 1.0 1.0 2.025 1.25 0.2
      
Atoms # charge
      
           1           1  0.82965299999999997       -5.5454030958352822       -4.8797386683199182       -5.2651282247313400                0           0           0
           2           1   1.5413479999999999       -4.5779066608070087       -5.2700775539220404       -4.7546226003190464                0           0           0
           3           1  0.86062700000000003       -3.8003595991039214       -4.7704211264449947       -5.4904267311218664                0           0           0
           4           1   1.2325940000000000       -3.1703438329980900       -5.2174151156788611       -4.6537856163960063                0           0           0
           5           1  0.92110899999999996       -2.0793860096101411       -4.9012408275089525       -4.9111506890002357                0           0           0
           6           1   1.5043869999999999       -1.0376758783054409       -4.7492121108728389       -5.4707711673437744                0           0           0
           7           1  0.88103100000000001      -0.20266312714967327       -5.1779317374194509       -4.7454063461132385                0           0           0
           8           1  0.92227999999999999       0.28237046129558507       -4.6676201071402481       -5.4694888676685345                0           0           0
           9           1   1.5129459999999999       0.93474147094718774       -5.5190738825585717       -4.9776100431800829                0           0           0
          10           1  0.87097899999999995        2.1153116378278467       -5.5806045627256893       -4.7738597025413467                0           0           0
          11           1  0.82823300000000000        1.9381680496849087       -5.3951226030017247       -5.6977838910272283                0           0           0
          12           1   1.3333429999999999        3.0332879816146399       -5.3257568520833951       -5.5317561500679693                0           0           0
          13           1  0.81986499999999995        4.1244989348484591       -5.3063131255644649       -5.3204486337520134                0           0           0
          14           1  0.74748000000000003        3.5245784431023992       -5.5412909346306334       -4.6437606530804203                0           0           0
          15           1  0.86770400000000003        4.9204570265381680       -4.8174043634729333       -4.9797753021919702                0           0           0
          16           1  0.73948999999999998        4.6910323106026848       -5.6952830021884164       -4.7968095360455232                0           0           0
          17           1   1.1174949999999999       -4.8023127871726565       -4.1479531104488689       -5.5199109691716988                0           0           0
          18           1   1.0167780000000000       -3.9996499721549661       -4.1418150048070173       -4.6461835930523012                0           0           0
          19           1   1.0699300000000000       -2.8279183384884701       -4.0583376892185843       -4.8350494245160327                0           0           0
          20           1  0.76943799999999996       -1.9504919980270015       -4.0818708758089084       -5.3129214847536073                0           0           0
          21           1   1.0829869999999999      -0.25370589067373039       -3.7652908870498472       -5.6913956156695678                0           0           0
          22           1   1.3859269999999999       0.96572780487268872       -3.6916779535031448       -5.3564800741657486                0           0           0
          23           1  0.77240699999999995        1.1035296338156186       -4.5039231595262326       -4.6437256852733988                0           0           0
          24           1   1.1917739999999999        2.0314808638417325       -4.5399787445466657       -5.0023265578113110                0           0           0
          25           1  0.76583000000000001        1.8036412140938429       -3.5395967813204599       -4.7342120163644621                0           0           0
          26           1  0.97774899999999998        2.1603673694593155       -3.5646850314712126       -5.6192126811572001                0           0           0
          27           1  0.83108000000000004        2.9351719832602416       -4.1985261400360017       -5.3748588881999524                0           0           0
          28           1   1.2215430000000000        3.9890823983489891       -4.2742737137765783       -5.2337542350156694                0           0           0
          29           1   1.3806490000000000        5.3895700217132561       -3.8297272516712146       -5.3265930273035051                0           0           0
          30           1   1.0400879999999999       -5.1699105881665570       -2.9689273377163357       -5.6266579734680047                0           0           0
          31           1  0.77126099999999997       -4.2858837879851928       -3.2867960652579811       -5.2659463018412698                0           0           0
          32           1  0.92384800000000000       -4.2806250499099487       -2.3920473417515735       -4.9339589769649557                0           0           0
          33           1  0.88862900000000000       -2.3165869575721572       -3.1295813791599238       -4.8795046341480628                0           0           0
          34           1  0.86158199999999996       -3.0698166957722650       -2.8358140112054833       -5.5341704105356637                0           0           0
          35           1   1.1209890000000000       -1.3316829559741405       -3.3127637216598278       -5.3231715386195679                0           0           0
          36           1   1.2420370000000001      -0.20849541788255266       -2.9451307767658386       -4.7334809104562163                0           0           0
          37           1  0.88274100000000000       -1.0383810372102191       -2.3137364168292640       -5.1647350466805726                0           0           0
          38           1   1.0668899999999999       0.69572863734604251       -2.4517037429209054       -5.4182336375778180                0           0           0
          39           1   1.1892499999999999        1.8667468045062980       -2.5787406334032017       -5.0912220764756055                0           0           0
          40           1  0.78319600000000000        2.8139212600716039       -2.8155047645441522       -5.3724479174961752                0           0           0
          41           1  0.77194799999999997        2.7171277013274615       -2.2982052430039079       -4.5397510678497897                0           0           0
          42           1  0.74873199999999995        3.6780262426962391       -3.3181727962141951       -5.1742830775144046                0           0           0
          43           1   1.0263439999999999        4.5216733029713581       -3.2084417108772318       -4.7463006314795235                0           0           0
          44           1  0.81308199999999997        4.5544742023553386       -2.4891026649521293       -5.4141060709538280                0           0           0
          45           1   1.1161060000000000        3.6398321974598051       -2.3705315780768554       -4.9678889028909454                0           0           0
          46           1   1.2125560000000000        5.4689106442332704       -2.4263616775446462       -4.9140749118147715                0           0           0
          47           1  0.74192100000000005       -5.0032078313137163       -2.0559876651087245       -5.3640990118965917                0           0           0
          48           1  0.91800800000000005       -4.1471717609044108       -1.5543512017434278       -5.5045452112916990                0           0           0
          49           1  0.83222700000000005       -3.2327169334771755       -1.9482940307864509       -5.2788053173239149                0           0           0
          50           1   1.0095200000000000       -2.5297313614382109       -1.2197922298699506       -4.8840673672790302                0           0           0
          51           1   1.4893410000000000       -2.1366830171493465       -2.1874221789846806       -5.5805430801825420                0           0           0
          52           1   1.2179240000000000       -1.3395124069849205       -1.3141022239847517       -4.7734011578830904                0           0           0
          53           1   1.0644769999999999      -0.21696932713112993       -1.6493855758586058       -5.2252552537704178                0           0           0
          54           1   1.3780330000000001       0.96925598720009631       -1.2763501759379920       -5.0297305800531786                0           0           0
          55           1   1.0451729999999999        2.1531776625703998       -1.4324223505804037       -4.8234685747855330                0           0           0
          56           1  0.79520100000000005        3.6407713752604991       -1.3774521781877329       -5.2493062649075029                0           0           0
          57           1   1.0204660000000001        4.4266972793388373       -1.5985655014104436       -4.5994435931186048                0           0           0
          58           1  0.80856499999999998        5.3308751774952263       -1.3826324973845061       -5.0137111658578322                0           0           0
          59           1   1.3538969999999999       -5.0607389069838540       -1.0804612221579486       -4.9881131682111626                0           0           0
          60           1  0.75854699999999997       -4.0647742093356722      -0.68017011688133344       -5.1859540389736800                0           0           0
          61           1  0.73175199999999996       -2.4353352353135960      -0.42913598969502864       -5.3678613207157033                0           0           0
          62           1   1.0328729999999999       -3.2269823205362682      -0.31898592469724107       -4.8619598729859286                0           0           0
          63           1  0.75083299999999997       -1.6073287718377554      -0.29701418839473348       -5.2682645192504785                0           0           0
          64           1  0.82179500000000005       -1.8918555616547628       -1.0744196435051956       -5.6617574188468582                0           0           0
          65           1  0.90665300000000004      -1.03803102661785829E-002 -0.65365024055910492       -4.8693750324048057                0           0           0
          66           1  0.88653700000000002      -0.93684496578981680      -0.29813002252105036       -4.6187029813000580                0           0           0
          67           1   1.1960150000000001       0.61424314545520886      -5.71767719549303166E-002  -5.5084756612438648                0           0           0
          68           1   1.0855290000000000        1.7605302257152671      -0.25913519515778116       -4.9765272527572577                0           0           0
          69           1  0.97821599999999997        2.8745873538099698      -0.73930759143832958       -5.2588306852408895                0           0           0
          70           1   1.4363210000000000        3.8773095922423551      -0.47128944783707549       -4.6861592706554935                0           0           0
          71           1   1.1656560000000000        5.2175272680040408      -0.35966939330930447       -4.9086060895196324                0           0           0
          72           1   1.0241950000000000       -5.1399947311141405       5.68317522356274196E-002  -5.4437262221632654                0           0           0
          73           1  0.83424600000000004       -4.6097664505582658       0.76630827877968155       -4.9658765142838046                0           0           0
          74           1   1.2242780000000000       -5.7179191987978539       0.90204572573054431       -4.8390911634629417                0           0           0
          75           1   1.2615920000000000       -3.9368193839912888       0.26468527080760040       -5.6897026664661885                0           0           0
          76           1  0.96946900000000003       -2.7365143960800546       0.42524753202288146       -5.5146267642180105                0           0           0
          77           1   1.0105480000000000       -3.3823417523858024       0.85857443445211779       -4.7518723373674909                0           0           0
          78           1   1.1696240000000000       -1.6384933960146357       0.71515317792341726       -5.3750071728193349                0           0           0
          79           1  0.91265600000000002       -2.2995570346686023        1.0202324533929774       -4.5822613689290623                0           0           0
          80           1  0.77751099999999995      -0.66577514371746105       0.45558132493157544       -5.3562680468286974                0           0           0
          81           1  0.88239800000000002       0.43269680695518531        1.0349655956095294       -5.3359129871817572                0           0           0
          82           1  0.79924200000000001        1.0776382296978166       0.44478229543434900       -4.6718312839592215                0           0           0
          83           1   1.1011640000000000        1.4539317769742972       0.81826452506032332       -5.6058472756560338                0           0           0
          84           1   1.4763390000000001        2.1771254338703994       0.88663552556637892       -4.5373228935121643                0           0           0
          85           1  0.85063500000000003        2.9557709794676832       0.18333623687867284       -4.8855107983673509                0           0           0
          86           1  0.83979999999999999        3.6403804136049764       0.21044794944339262       -5.5410281219540485                0           0           0
          87           1   1.1119710000000000        4.4776473194434967       0.66171332415164841       -5.0026269655965487                0           0           0
          88           1  0.92940100000000003       -5.4546342465234181        1.9599770735471296       -5.0984615133793634                0           0           0
          89           1  0.98624599999999996       -4.6154678584277491        2.3574107021455344       -5.6270539406245579                0           0           0
          90           1  0.88377099999999997       -3.8557570472310330        1.4260069016312178       -5.5088046974102891                0           0           0
          91           1   1.4289920000000000       -4.4187788272850792        1.7656603827810455       -4.5649209091788325                0           0           0
          92           1   1.2863240000000000       -2.6716536200635108        1.6172744326157078       -5.4890534049710853                0           0           0
          93           1  0.83280200000000004       -3.2651522034350284        1.8627898102264302       -4.5916268913811384                0           0           0
          94           1  0.91532000000000002       -1.5869880940713319        1.8510134641737217       -5.2067716989727524                0           0           0
          95           1   1.0549850000000001      -0.61684024732904330        1.4265839202716428       -5.3293074216175826                0           0           0
          96           1   1.4844250000000001       0.40760827965368307        2.1880474801370466       -5.4373443707621298                0           0           0
          97           1  0.86414400000000002        1.4772386300064628        1.8108599333555420       -5.3052783846030636                0           0           0
          98           1   1.3125690000000001        2.4430489819423808        2.2809835792451949       -5.1460605648598792                0           0           0
          99           1  0.82318199999999997        2.3802831054719231        1.2561677688883366       -5.6212084551686630                0           0           0
         100           1   1.2526790000000001        3.4004773837924738        1.2333501217931300       -5.3633940187313103                0           0           0
         101           1   1.3715560000000000        4.6945314865277155        1.9438070309786584       -5.2153082473685872                0           0           0
         102           1   1.1018300000000001       -5.2706672187680335        2.9234712477254874       -4.6581501775211756                0           0           0
         103           1   1.0932630000000001       -3.5675810870330595        2.4634217048096367       -5.3442912346580318                0           0           0
         104           1  0.91189900000000002       -4.1211243449011619        2.8849066732657001       -4.5136444178893047                0           0           0
         105           1  0.73728300000000002       -2.6122451599531886        2.6410930269435724       -5.2596048300896872                0           0           0
         106           1  0.79696199999999995       -3.3083959781158092        3.4060270796958090       -5.2525730272724731                0           0           0
         107           1   1.2884510000000000       -1.6760197832226842        2.9541360959518848       -4.9479518926618873                0           0           0
         108           1  0.90628100000000000      -0.72716954555838242        2.3964395559344300       -4.7449002319982512                0           0           0
         109           1   1.2439519999999999      -0.38420756412358159        3.3540471259612588       -5.2013943690631761                0           0           0
         110           1  0.85372000000000003      -0.78171073564519489        2.4256542712409725       -5.7210890261127405                0           0           0
         111           1  0.79320299999999999       0.61380205393899168        3.3018533853432288       -5.5989365375211246                0           0           0
         112           1  0.83657099999999995        1.1753694403324442        2.4702743244629488       -4.6484176849505481                0           0           0
         113           1  0.79898800000000003        2.9605172023710189        3.1906239078738263       -4.7851318056888044                0           0           0
         114           1  0.97961900000000002        3.5960343827345032        2.3816762306368489       -4.7881330493181373                0           0           0
         115           1  0.80490099999999998        4.3401390577497114        2.9626354027392310       -5.0321900438265432                0           0           0
         116           1  0.76785300000000001        5.2761263057853700        2.8446310586924941       -5.1955805711435454                0           0           0
         117           1  0.78729899999999997       -4.9518135118462228        4.4953162165590950       -5.4858260070604405                0           0           0
         118           1  0.86933700000000003       -5.5482407470955515        3.5912766994426129       -5.4413977541230549                0           0           0
         119           1   1.4795579999999999       -4.3747026648848024        3.5623666891184982       -5.4168599094050780                0           0           0
         120           1   1.1486650000000000       -3.1833009512844348        4.3849737372338531       -5.0842898003003452                0           0           0
         121           1  0.75789499999999999       -2.3884043084887594        3.7443315979807021       -4.9460322928771889                0           0           0
         122           1  0.80026200000000003       -2.3206218468059534        4.4456916309866994       -5.6152430404535609                0           0           0
         123           1  0.84546600000000005       -1.5273310078458939        3.9551661379402372       -5.5388408904057522                0           0           0
         124           1  0.74727200000000005       -1.2031293833915200        3.8590392644011757       -4.6785780029856063                0           0           0
         125           1   1.1842509999999999       -1.9083875785287474        4.6030123238854692       -4.6953536898610828                0           0           0
         126           1   1.0372950000000001      -0.65488857568935277        4.5082772172880823       -5.4107470523183840                0           0           0
         127           1  0.75573400000000002       0.26171487244922975        4.1589200907496959       -5.1424988701245775                0           0           0
         128           1  0.90554000000000001        1.2405855038985880        4.0852225221049423       -5.6175676600382705                0           0           0
         129           1  0.73019400000000001        1.8121683696916433        4.2133569688658294       -4.6937771309015224                0           0           0
         130           1   1.1501790000000001        2.1522328087712310        3.5484718016545624       -5.3277953295426093                0           0           0
         131           1   1.0361840000000000        3.0270734977579714        4.2494597837471737       -5.0772700032978841                0           0           0
         132           1  0.78415599999999996        3.9322838859510796        3.9077503616645135       -5.1485299639440800                0           0           0
         133           1  0.84128000000000003        4.6852583796373324        4.1813680295539584       -4.6296853870970569                0           0           0
         134           1   1.3047489999999999        4.8111920788469362        3.6878545652443577       -5.6351114169685461                0           0           0
         135           1  0.87163800000000002       -5.3642315918331738        5.3258522229347225       -5.1932074842526106                0           0           0
         136           1   1.1479109999999999       -4.3637065129122190        4.7512791465432702       -4.6930680492933670                0           0           0
         137           1  0.85967499999999997       -3.6114560258950470        5.3532354346389130       -5.0962430011262994                0           0           0
         138           1  0.80051799999999995       -4.4900871186022737        5.3889937878651981       -5.5097795835818326                0           0           0
         139           1   1.1004989999999999       -2.5954364905070135        5.4388053680031128       -5.4138381343734707                0           0           0
         140           1  0.95438500000000004       -1.5484432318278580        5.6734000217520038       -5.1931816485028079                0           0           0
         141           1  0.98720399999999997      -0.34772741090876380        5.6292505375982103       -5.5615153485133328                0           0           0
         142           1  0.86126300000000000       0.22702455346983186        5.0153203861122009       -4.8435552131225901                0           0           0
         143           1  0.79245800000000000        1.0918554862813679        4.6985017972976770       -4.7989638902040772                0           0           0
         144           1   1.2686580000000001        1.9934235169472840        4.9427358349058590       -5.3297397111239491                0           0           0
         145           1  0.86478800000000000        2.9195954392013697        5.2692607975452717       -4.8620486839187045                0           0           0
         146           1  0.73688299999999995        3.1261493726867720        5.0172300201433551       -5.7101909267472921                0           0           0
         147           1   1.4304490000000001        3.9932072964284693        4.9943604559156007       -4.9131670154297584                0           0           0
         148           1  0.76117100000000004        5.1025410859863189        5.0303954071702925       -5.0209965766622862                0           0           0
         149           1  0.81904200000000005        4.6151272211157544        4.8803232933760281        5.6741480502911656                0           0           0
         150           1  0.74355499999999997       -5.1792755420831522       -5.2304584619550170       -3.7812752974671522                0           0           0
         151           1  0.76271500000000003       -3.8961637194320544       -5.0043731280331860       -3.9558861438847512                0           0           0
         152           1  0.76898400000000000       -2.4467399670893397       -4.7729024415458712       -4.0567767722695764                0           0           0
         153           1   1.0236600000000000       -3.1889697614157240       -5.5585535210820529       -3.5149722059231112                0           0           0
         154           1  0.73077700000000001       -1.4920702039623555       -4.9055705824621612       -3.7614815508017507                0           0           0
         155           1   1.1202880000000000       -2.0132803018533427       -5.6669165352276867       -4.1852767621564020                0           0           0
         156           1  0.76807899999999996       -1.1686181569715774       -5.1590726075681941       -4.4930102010398691                0           0           0
         157           1   1.3321630000000000      -0.46882927784191786       -4.9668825453271692       -3.6791646068673010                0           0           0
         158           1  0.80179999999999996       0.67207667790036485       -4.9373101662685812       -3.9331862816769463                0           0           0
         159           1  0.94373200000000002        1.6259182907454806       -5.0656462008548644       -4.0324284589882424                0           0           0
         160           1  0.95481799999999994        3.1758476165668768       -4.6760282172603675       -4.5080286742862530                0           0           0
         161           1   1.4699640000000000        2.7727235100474950       -5.6467157195191575       -3.8597874062085835                0           0           0
         162           1   1.3309860000000000        4.2491618368673940       -5.0901193914829888       -4.0896159973022534                0           0           0
         163           1   1.1672389999999999        5.5679643187017511       -5.5016174712104924       -4.4557968124353859                0           0           0
         164           1  0.96901499999999996       -5.4419770686054969       -4.4014121157387001       -4.4204753293104346                0           0           0
         165           1   1.1382319999999999       -4.6427565123599184       -4.3889980480569433       -3.6102613846740441                0           0           0
         166           1   1.0295930000000000       -5.6944556210167248       -3.7202681809076923       -3.5829186553910874                0           0           0
         167           1  0.75638000000000005       -4.0905901658790560       -3.5654102651371251       -3.8331333425862688                0           0           0
         168           1   1.4976440000000000       -3.2456427879304925       -4.2021922549312523       -3.6135490229942806                0           0           0
         169           1   1.3677140000000001       -1.7371277729134547       -4.0011739065954881       -4.2369548659561822                0           0           0
         170           1  0.87362600000000001      -0.74537057479134194       -3.9550522000759334       -4.7326841124682835                0           0           0
         171           1  0.77448300000000003      -0.48467000003182559       -3.9225631415474838       -3.6441533089119691                0           0           0
         172           1   1.1426689999999999       0.20213300266904000       -4.1808273754108045       -4.4323693192606850                0           0           0
         173           1   1.6053649999999999        1.3748139254681258       -3.8473677925917693       -3.7818513312498561                0           0           0
         174           1  0.81254700000000002        2.3838516190071601       -4.4081982467594019       -4.0218115988760408                0           0           0
         175           1   1.5251770000000000        2.8582388667614573       -3.4514909049246403       -4.4886704726170734                0           0           0
         176           1  0.90739599999999998        3.8967973338045443       -3.9367745339297486       -4.1718048965630636                0           0           0
         177           1  0.91723800000000000        3.4618984491221809       -3.3070564755840066       -3.4521605385830534                0           0           0
         178           1  0.98055700000000001        4.9347470127409352       -4.1350702881837051       -4.2296797575477960                0           0           0
         179           1   1.4378010000000001       -4.9228520764627230       -3.2631139689859481       -4.4098141753581599                0           0           0