LAMMPS data file via write_data, version 17 Nov 2016, timestep = 0
      
  1500 atoms
      
1 atom types
  -5.7235712129999996        5.7235712129999996      xlo xhi
  -5.7235712129999996        5.7235712129999996      ylo yhi
  -5.7235712129999996        5.7235712129999996      zlo zhi
Masses
      
1 1
      
Pair Coeffs # lj/poly
      
                               1 1.0 1.0 2.025 1.25 0.2
      
Atoms # charge
      
           1           1  0.82965299999999997       -5.5431980186158807       -4.8800060033180204       -5.2649504883930751                0           0           0
           2           1   1.5413479999999999       -4.5757587886151363       -5.2692314462659846       -4.7547279286673225                0           0           0
           3           1  0.86062700000000003       -3.7993009044797277       -4.7696344252795742       -5.4905575468737329                0           0           0
           4           1   1.2325940000000000       -3.1680621183892606       -5.2186658195621280       -4.6547980125929573                0           0           0
           5           1  0.92110899999999996       -2.0797413122758948       -4.9006741249206272       -4.9113633484192949                0           0           0
           6           1   1.5043869999999999       -1.0371517210500834       -4.7427443513747374       -5.4668507597332825                0           0           0
           7           1  0.88103100000000001      -0.20234060869278370       -5.1863954293993810       -4.7522626660278515                0           0           0
           8           1  0.92227999999999999       0.28281525977491562       -4.6636455848319747       -5.4671741472796729                0           0           0
           9           1   1.5129459999999999       0.93967502761367339       -5.5092249984902653       -4.9719927351245907                0           0           0
          10           1  0.87097899999999995        2.1215448993363140       -5.5721044909219186       -4.7687055044870714                0           0           0
          11           1  0.82823300000000000        1.9428308551831472       -5.3890344878769270       -5.6924260907347852                0           0           0
          12           1   1.3333429999999999        3.0420840532657731       -5.3167226822997806       -5.5231031837952695                0           0           0
          13           1  0.81986499999999995        4.1307230012973370       -5.3014326361129571       -5.3184681708963435                0           0           0
          14           1  0.74748000000000003        3.5282364122614815       -5.5410379571985144       -4.6378379664646499                0           0           0
          15           1  0.86770400000000003        4.9254321407297805       -4.8170355973101140       -4.9774935944164440                0           0           0
          16           1  0.73948999999999998        4.6929982619701196       -5.6959472747136406       -4.7952927969711805                0           0           0
          17           1   1.1174949999999999       -4.8011027206354289       -4.1479636631051502       -5.5211001001746540                0           0           0
          18           1   1.0167780000000000       -3.9995028855658763       -4.1407872714401792       -4.6462841037634055                0           0           0
          19           1   1.0699300000000000       -2.8283469345623642       -4.0579753753137933       -4.8344699818088950                0           0           0
          20           1  0.76943799999999996       -1.9517932642392113       -4.0805173362361113       -5.3126178352363382                0           0           0
          21           1   1.0829869999999999      -0.25168684825942300       -3.7618701766824145       -5.6897868554559698                0           0           0
          22           1   1.3859269999999999       0.96883407414532474       -3.6916672267555533       -5.3561371630776495                0           0           0
          23           1  0.77240699999999995        1.1094837072446033       -4.4962799957395507       -4.6391624046980064                0           0           0
          24           1   1.1917739999999999        2.0352377099090839       -4.5348178680651765       -5.0012657364055162                0           0           0
          25           1  0.76583000000000001        1.8058387598375347       -3.5380344713228213       -4.7331573396193898                0           0           0
          26           1  0.97774899999999998        2.1631749270508029       -3.5644794031261973       -5.6199942271125165                0           0           0
          27           1  0.83108000000000004        2.9404408249609943       -4.1950763449343231       -5.3729098609927526                0           0           0
          28           1   1.2215430000000000        3.9942850586864935       -4.2701235833685782       -5.2292611401884752                0           0           0
          29           1   1.3806490000000000        5.3910205269331968       -3.8286630634331975       -5.3261939524206694                0           0           0
          30           1   1.0400879999999999       -5.1686340409432079       -2.9691912862048757       -5.6269487063209409                0           0           0
          31           1  0.77126099999999997       -4.2855777000504611       -3.2861982234803131       -5.2655395374052230                0           0           0
          32           1  0.92384800000000000       -4.2810084471817884       -2.3913316402468152       -4.9341189624093564                0           0           0
          33           1  0.88862900000000000       -2.3167273879211292       -3.1291043311057924       -4.8802296042439535                0           0           0
          34           1  0.86158199999999996       -3.0692622610991349       -2.8352332514252350       -5.5348823285931301                0           0           0
          35           1   1.1209890000000000       -1.3313618422589570       -3.3125485022764987       -5.3229683867643001                0           0           0
          36           1   1.2420370000000001      -0.20787506500325215       -2.9436121324467077       -4.7329420394371891                0           0           0
          37           1  0.88274100000000000       -1.0384069343350388       -2.3134463521221655       -5.1653960955441196                0           0           0
          38           1   1.0668899999999999       0.69589526157788306       -2.4520280101942977       -5.4189562865573988                0           0           0
          39           1   1.1892499999999999        1.8674853450264060       -2.5786974418873472       -5.0919890168553099                0           0           0
          40           1  0.78319600000000000        2.8151026781911970       -2.8156994846315979       -5.3734304753067512                0           0           0
          41           1  0.77194799999999997        2.7164060919738588       -2.2959264683209533       -4.5399659190511343                0           0           0
          42           1  0.74873199999999995        3.6784757983487051       -3.3159387954696200       -5.1748071128927275                0           0           0
          43           1   1.0263439999999999        4.5227433788798042       -3.2059860922065559       -4.7458368041891701                0           0           0
          44           1  0.81308199999999997        4.5551564867716721       -2.4866947821332896       -5.4136160112543577                0           0           0
          45           1   1.1161060000000000        3.6396399927555745       -2.3692433490690692       -4.9670217739440066                0           0           0
          46           1   1.2125560000000000        5.4704877698121415       -2.4260089303866530       -4.9141710328469603                0           0           0
          47           1  0.74192100000000005       -5.0036542479451418       -2.0560816901091750       -5.3646544227640165                0           0           0
          48           1  0.91800800000000005       -4.1475805490361797       -1.5535626403561160       -5.5049575484798190                0           0           0
          49           1  0.83222700000000005       -3.2329332121142880       -1.9477621353545542       -5.2798070934019794                0           0           0
          50           1   1.0095200000000000       -2.5301775797156454       -1.2191877825918276       -4.8856707137697537                0           0           0
          51           1   1.4893410000000000       -2.1363028538105309       -2.1869353994385974       -5.5817653171588635                0           0           0
          52           1   1.2179240000000000       -1.3398683226865904       -1.3141551903203537       -4.7745698290012912                0           0           0
          53           1   1.0644769999999999      -0.21692632298483616       -1.6494921741837896       -5.2252864053455319                0           0           0
          54           1   1.3780330000000001       0.96933567886538530       -1.2765586321278528       -5.0306261907071042                0           0           0
          55           1   1.0451729999999999        2.1530979964397714       -1.4327903745133046       -4.8227608564305644                0           0           0
          56           1  0.79520100000000005        3.6407757134553105       -1.3766849842855118       -5.2496510517521218                0           0           0
          57           1   1.0204660000000001        4.4263894900904770       -1.5980788867652604       -4.5997390444009429                0           0           0
          58           1  0.80856499999999998        5.3301108989596351       -1.3824087744935332       -5.0130704814272349                0           0           0
          59           1   1.3538969999999999       -5.0616124475488249       -1.0806428620290163       -4.9886444274677642                0           0           0
          60           1  0.75854699999999997       -4.0654729584840403      -0.67961241979974663       -5.1870912347982232                0           0           0
          61           1  0.73175199999999996       -2.4357712627136818      -0.42811214707216028       -5.3694836931562175                0           0           0
          62           1   1.0328729999999999       -3.2276876393626428      -0.31805529882626171       -4.8643257650583376                0           0           0
          63           1  0.75083299999999997       -1.6074653263218543      -0.29477056232364873       -5.2706310604448987                0           0           0
          64           1  0.82179500000000005       -1.8917629556335682       -1.0733554540775643       -5.6626111720607915                0           0           0
          65           1  0.90665300000000004      -1.02366811693981319E-002 -0.65412020202770549       -4.8703944103977719                0           0           0
          66           1  0.88653700000000002      -0.93715553981084287      -0.29948082587517533       -4.6201052334277666                0           0           0
          67           1   1.1960150000000001       0.61340693211473862      -5.75294409341751134E-002  -5.5105398054655890                0           0           0
          68           1   1.0855290000000000        1.7601707815341392      -0.25980801294309508       -4.9767807358398679                0           0           0
          69           1  0.97821599999999997        2.8738922290077742      -0.73922542368802091       -5.2583345084500914                0           0           0
          70           1   1.4363210000000000        3.8773282691280979      -0.47064417658378321       -4.6868634866785204                0           0           0
          71           1   1.1656560000000000        5.2171526160994723      -0.35925393211808299       -4.9095687643502242                0           0           0
          72           1   1.0241950000000000       -5.1391934434365840       5.72762103772568310E-002  -5.4440934204407228                0           0           0
          73           1  0.83424600000000004       -4.6093433783750122       0.76745367025378286       -4.9668057176298177                0           0           0
          74           1   1.2242780000000000       -5.7174958356549208       0.90285482888919333       -4.8402680737506962                0           0           0
          75           1   1.2615920000000000       -3.9366852957318192       0.26584460394882026       -5.6908364108141836                0           0           0
          76           1  0.96946900000000003       -2.7353828888530827       0.42761841162183689       -5.5149897822948022                0           0           0
          77           1   1.0105480000000000       -3.3824683883313846       0.86034305183319582       -4.7533629492826019                0           0           0
          78           1   1.1696240000000000       -1.6373772975816001       0.71750667645047361       -5.3771057377179856                0           0           0
          79           1  0.91265600000000002       -2.3006484703895183        1.0210507643688143       -4.5858132971004233                0           0           0
          80           1  0.77751099999999995      -0.66459210272688285       0.45633732129634108       -5.3574242963967427                0           0           0
          81           1  0.88239800000000002       0.43195973941975030        1.0320022864134799       -5.3367769383639256                0           0           0
          82           1  0.79924200000000001        1.0769928851728263       0.44230736651977587       -4.6739807860873990                0           0           0
          83           1   1.1011640000000000        1.4531333644413333       0.81795262879581010       -5.6078550073041722                0           0           0
          84           1   1.4763390000000001        2.1777179242015032       0.88577671235870703       -4.5393501558475293                0           0           0
          85           1  0.85063500000000003        2.9563572266720737       0.18308037025085167       -4.8861065572093523                0           0           0
          86           1  0.83979999999999999        3.6396239883204924       0.21100236195521216       -5.5423893807716826                0           0           0
          87           1   1.1119710000000000        4.4777113808036297       0.66221424370472981       -5.0034385278957840                0           0           0
          88           1  0.92940100000000003       -5.4535473730852093        1.9607574571882198       -5.0998724177455594                0           0           0
          89           1  0.98624599999999996       -4.6143445058440271        2.3588298212692305       -5.6279456699985326                0           0           0
          90           1  0.88377099999999997       -3.8547451158977548        1.4275819098857037       -5.5102970860645506                0           0           0
          91           1   1.4289920000000000       -4.4176340494845796        1.7668786881609657       -4.5663856148431190                0           0           0
          92           1   1.2863240000000000       -2.6681924954257594        1.6215006361707065       -5.4937126916081862                0           0           0
          93           1  0.83280200000000004       -3.2638025292871755        1.8642795346939041       -4.5947218326307269                0           0           0
          94           1  0.91532000000000002       -1.5856875309446394        1.8541284236447177       -5.2109849218826731                0           0           0
          95           1   1.0549850000000001      -0.61767415206731346        1.4270490477916633       -5.3320532364325208                0           0           0
          96           1   1.4844250000000001       0.40777532609698763        2.1834578593663023       -5.4335675869511144                0           0           0
          97           1  0.86414400000000002        1.4787521457030062        1.8077164368108560       -5.3063564014016062                0           0           0
          98           1   1.3125690000000001        2.4440380584751580        2.2777546381782514       -5.1463802906166345                0           0           0
          99           1  0.82318199999999997        2.3796395809091742        1.2567461964842384       -5.6272838597556367                0           0           0
         100           1   1.2526790000000001        3.3997468839087741        1.2333886898987672       -5.3647158819494170                0           0           0
         101           1   1.3715560000000000        4.6949470346362396        1.9451721171247911       -5.2167198717624848                0           0           0
         102           1   1.1018300000000001       -5.2690763947875645        2.9248226165071696       -4.6605743695839674                0           0           0
         103           1   1.0932630000000001       -3.5655444847164737        2.4646502070911023       -5.3471488358650303                0           0           0
         104           1  0.91189900000000002       -4.1189895490584592        2.8865817864402050       -4.5164109745031000                0           0           0
         105           1  0.73728300000000002       -2.6088483091057437        2.6438357712404752       -5.2637066431107007                0           0           0
         106           1  0.79696199999999995       -3.3082624721512262        3.4071871495066297       -5.2555487098241160                0           0           0
         107           1   1.2884510000000000       -1.6724403703216462        2.9553635619143570       -4.9517076189664948                0           0           0
         108           1  0.90628100000000000      -0.72564691076721921        2.3946941684037473       -4.7432855103789029                0           0           0
         109           1   1.2439519999999999      -0.38145414320775650        3.3551917355090737       -5.1878583602638235                0           0           0
         110           1  0.85372000000000003      -0.79155728262714309        2.4286543566242997       -5.7183877749049223                0           0           0
         111           1  0.79320299999999999       0.61118464905706293        3.2928189666244432       -5.5585981582470589                0           0           0
         112           1  0.83657099999999995        1.1788031600796041        2.4638075293263686       -4.6487942826062243                0           0           0
         113           1  0.79898800000000003        2.9597430442380706        3.1885384205671112       -4.7816950976768879                0           0           0
         114           1  0.97961900000000002        3.5973305221614549        2.3806440398876472       -4.7884912128330424                0           0           0
         115           1  0.80490099999999998        4.3405270269688376        2.9636437318086148       -5.0333619122318431                0           0           0
         116           1  0.76785300000000001        5.2762288953822409        2.8457171054402295       -5.1969857614895920                0           0           0
         117           1  0.78729899999999997       -4.9488385259609693        4.4973473406525279       -5.4849473475002100                0           0           0
         118           1  0.86933700000000003       -5.5464404009697539        3.5937097988994982       -5.4428269095089208                0           0           0
         119           1   1.4795579999999999       -4.3734361193241389        3.5636866445450330       -5.4200017908009768                0           0           0
         120           1   1.1486650000000000       -3.1704706524213395        4.3849876144810267       -5.0921703861866634                0           0           0
         121           1  0.75789499999999999       -2.3812003359976299        3.7440108080582899       -4.9434587333840838                0           0           0
         122           1  0.80026200000000003       -2.3036042656066624        4.4601427773488993       -5.6303983545283263                0           0           0
         123           1  0.84546600000000005       -1.5170398300858992        3.9654717413621796       -5.5360264822327956                0           0           0
         124           1  0.74727200000000005       -1.2016038643321805        3.8603541547743010       -4.6740494930657253                0           0           0
         125           1   1.1842509999999999       -1.9065274624779822        4.6054790934147523       -4.6975951868245431                0           0           0
         126           1   1.0372950000000001      -0.63950935252472352        4.5066776107153075       -5.4084422545173814                0           0           0
         127           1  0.75573400000000002       0.28065723762254713        4.1589016542484334       -5.1139404777130908                0           0           0
         128           1  0.90554000000000001        1.2342240724089093        4.0957563965119341       -5.5699025203659653                0           0           0
         129           1  0.73019400000000001        1.8165624063017844        4.2089240126760146       -4.6921059762799402                0           0           0
         130           1   1.1501790000000001        2.1526200186004507        3.5470069743769379       -5.3254359122985671                0           0           0
         131           1   1.0361840000000000        3.0266831564907619        4.2497701843973115       -5.0724753093650117                0           0           0
         132           1  0.78415599999999996        3.9332156084007828        3.9113898329207188       -5.1474073798472357                0           0           0
         133           1  0.84128000000000003        4.6873105022910320        4.1844662590581425       -4.6282227662082924                0           0           0
         134           1   1.3047489999999999        4.8127488772470439        3.6911289395837770       -5.6333473110812715                0           0           0
         135           1  0.87163800000000002       -5.3610417398061658        5.3273024305192695       -5.1949298516752815                0           0           0
         136           1   1.1479109999999999       -4.3567590107715297        4.7493864421609668       -4.6941461008034038                0           0           0
         137           1  0.85967499999999997       -3.6032388981396721        5.3499704569966653       -5.0973226287296054                0           0           0
         138           1  0.80051799999999995       -4.4858984830008684        5.3891175123167798       -5.5085906263150610                0           0           0
         139           1   1.1004989999999999       -2.5867879139444687        5.4422513188766644       -5.4196288385251661                0           0           0
         140           1  0.95438500000000004       -1.5434348702579141        5.6758303210866217       -5.1866939832181158                0           0           0
         141           1  0.98720399999999997      -0.37666191240111591        5.6262252911089252       -5.5814770881857392                0           0           0
         142           1  0.86126300000000000       0.23500833815690658        5.0233062158923563       -4.8306420670853667                0           0           0
         143           1  0.79245800000000000        1.0932233110064393        4.6906987045113286       -4.7697631505032430                0           0           0
         144           1   1.2686580000000001        1.9901842200991622        4.9483681728234608       -5.3156183675488453                0           0           0
         145           1  0.86478800000000000        2.9200436733182844        5.2723870714007077       -4.8575593417754002                0           0           0
         146           1  0.73688299999999995        3.1468805786077123        5.0124729725899133       -5.6965991316977735                0           0           0
         147           1   1.4304490000000001        3.9930652458553588        4.9952584852073088       -4.9149716331622839                0           0           0
         148           1  0.76117100000000004        5.1029544738101595        5.0292267551137648       -5.0210226814948360                0           0           0
         149           1  0.81904200000000005        4.6163332381864297        4.8807779001605773        5.6737398567393988                0           0           0
         150           1  0.74355499999999997       -5.1768863107123320       -5.2305530548057266       -3.7821495011815207                0           0           0
         151           1  0.76271500000000003       -3.8941749960600456       -5.0037186934812787       -3.9564469300725849                0           0           0
         152           1  0.76898400000000000       -2.4463722958170986       -4.7718783419531965       -4.0567882448661043                0           0           0
         153           1   1.0236600000000000       -3.1878163514218700       -5.5573240995257063       -3.5149328576586916                0           0           0
         154           1  0.73077700000000001       -1.4911695101658076       -4.9039456633599583       -3.7613853566258104                0           0           0
         155           1   1.1202880000000000       -2.0111599496596031       -5.6652657617214057       -4.1830091320039164                0           0           0
         156           1  0.76807899999999996       -1.1658355930410140       -5.1600445748947701       -4.4916376057720626                0           0           0
         157           1   1.3321630000000000      -0.46743701075195254       -4.9653378008213513       -3.6814432760224096                0           0           0
         158           1  0.80179999999999996       0.67767101609624270       -4.9339782438795003       -3.9310446114825393                0           0           0
         159           1  0.94373200000000002        1.6316670697471389       -5.0572493062248558       -4.0280650621439351                0           0           0
         160           1  0.95481799999999994        3.1805088115671509       -4.6727174943009677       -4.5031497912882630                0           0           0
         161           1   1.4699640000000000        2.7771639031761062       -5.6442751006016287       -3.8546939854856435                0           0           0
         162           1   1.3309860000000000        4.2531844829804424       -5.0891696284808905       -4.0877114796933904                0           0           0
         163           1   1.1672389999999999        5.5708987004161354       -5.5039613791387527       -4.4555448666316328                0           0           0
         164           1  0.96901499999999996       -5.4418149883527001       -4.4018985751917352       -4.4199699244649482                0           0           0
         165           1   1.1382319999999999       -4.6421946385324242       -4.3887644808009183       -3.6100899015616941                0           0           0
         166           1   1.0295930000000000       -5.6942418517967166       -3.7200902504893150       -3.5823186104567837                0           0           0
         167           1  0.75638000000000005       -4.0902074604275276       -3.5649404261260966       -3.8329270557434327                0           0           0
         168           1   1.4976440000000000       -3.2452233618069561       -4.2013179314054128       -3.6135614489604828                0           0           0
         169           1   1.3677140000000001       -1.7370590867442064       -3.9995481673945328       -4.2365041510677148                0           0           0
         170           1  0.87362600000000001      -0.74321266987584611       -3.9503732061534467       -4.7284814401472355                0           0           0
         171           1  0.77448300000000003      -0.48366221267584653       -3.9216644383846200       -3.6440036600653807                0           0           0
         172           1   1.1426689999999999       0.20455443812706431       -4.1815344756582000       -4.4327822979969920                0           0           0
         173           1   1.6053649999999999        1.3772727852571629       -3.8431038631439867       -3.7786592675046400                0           0           0
         174           1  0.81254700000000002        2.3874270728152194       -4.4049804864698991       -4.0189522405544986                0           0           0
         175           1   1.5251770000000000        2.8602062223893938       -3.4483449838830427       -4.4868010363654030                0           0           0
         176           1  0.90739599999999998        3.8985628917942901       -3.9333603536061279       -4.1688934230000232                0           0           0
         177           1  0.91723800000000000        3.4628826370220764       -3.3045687808736131       -3.4498653533484216                0           0           0
         178           1  0.98055700000000001        4.9355538457483625       -4.1331006680808029       -4.2289770145380530                0           0           0
         179           1   1.4378010000000001       -4.9224139861039280       -3.2631267903241317       -4.4094147007062165                0           0           0