LAMMPS data file via write_data, version 17 Nov 2016, timestep = 0
      
  1500 atoms
      
1 atom types
  -5.7235712129999996        5.7235712129999996      xlo xhi
  -5.7235712129999996        5.7235712129999996      ylo yhi
  -5.7235712129999996        5.7235712129999996      zlo zhi
Masses
      
1 1
      
Pair Coeffs # lj/poly
      
                               1 1.0 1.0 2.025 1.25 0.2
      
Atoms # charge
      
           1           1  0.82965299999999997       -5.5503504546098288       -4.8787526561059478       -5.2652502501397143                0           0           0
           2           1   1.5413479999999999       -4.5859438526298879       -5.2689377375859738       -4.7539784449277542                0           0           0
           3           1  0.86062700000000003       -3.8128008064363437       -4.7630805309268931       -5.4935183699544901                0           0           0
           4           1   1.2325940000000000       -3.1859604599721605       -5.2223630787158237       -4.6643925276754086                0           0           0
           5           1  0.92110899999999996       -2.0881382911252016       -4.8941643318365902       -4.9022489044157345                0           0           0
           6           1   1.5043869999999999       -1.0417612947062702       -4.7197699220780835       -5.4713239831286016                0           0           0
           7           1  0.88103100000000001      -0.20523499099507969       -5.1649783885641130       -4.7461551640796023                0           0           0
           8           1  0.92227999999999999       0.29261027414329632       -4.6642416078075284       -5.4701813827778745                0           0           0
           9           1   1.5129459999999999       0.93670854356349853       -5.5194133245135557       -4.9834226388030656                0           0           0
          10           1  0.87097899999999995        2.1138273141674606       -5.5792589625251958       -4.7747029621838539                0           0           0
          11           1  0.82823300000000000        1.9365395495034692       -5.3931521311889163       -5.6988191583759891                0           0           0
          12           1   1.3333429999999999        3.0308269079354204       -5.3247900423338388       -5.5315653040030091                0           0           0
          13           1  0.81986499999999995        4.1218486970087422       -5.3063249488412580       -5.3204478557031702                0           0           0
          14           1  0.74748000000000003        3.5237126751856263       -5.5415955690441780       -4.6445994252007949                0           0           0
          15           1  0.86770400000000003        4.9177099255209136       -4.8172312162436093       -4.9819012076879305                0           0           0
          16           1  0.73948999999999998        4.6891476174554523       -5.6960029446165015       -4.7980445208590465                0           0           0
          17           1   1.1174949999999999       -4.8094961141149462       -4.1482840755395554       -5.5285941211599452                0           0           0
          18           1   1.0167780000000000       -4.0233600201013227       -4.1324937119960854       -4.6484533582013396                0           0           0
          19           1   1.0699300000000000       -2.8693006241492767       -4.0586999723751767       -4.8533483687650376                0           0           0
          20           1  0.76943799999999996       -1.9732739580067218       -4.0795165642719233       -5.3017334801438318                0           0           0
          21           1   1.0829869999999999      -0.23603357827277893       -3.7544329951133042       -5.6625102220641175                0           0           0
          22           1   1.3859269999999999       0.98126802250993794       -3.6832989351615812       -5.3587827942987225                0           0           0
          23           1  0.77240699999999995        1.0861716385907112       -4.4999408459183501       -4.6520937074985067                0           0           0
          24           1   1.1917739999999999        2.0259890646332792       -4.5388141635568289       -4.9999595593096169                0           0           0
          25           1  0.76583000000000001        1.8124636877282576       -3.5366852730255851       -4.7329264043906525                0           0           0
          26           1  0.97774899999999998        2.1666900471399062       -3.5632037890348602       -5.6188343732567603                0           0           0
          27           1  0.83108000000000004        2.9321668029628167       -4.2000242935607179       -5.3751971852491920                0           0           0
          28           1   1.2215430000000000        3.9866204979570270       -4.2739011903522721       -5.2351404771749230                0           0           0
          29           1   1.3806490000000000        5.3867963188555361       -3.8289020210732669       -5.3283643073042786                0           0           0
          30           1   1.0400879999999999       -5.1730027377607026       -2.9671182839543317       -5.6307773343347183                0           0           0
          31           1  0.77126099999999997       -4.2918143673137932       -3.2861872392751490       -5.2666584834648758                0           0           0
          32           1  0.92384800000000000       -4.2968884034911063       -2.3849202152727234       -4.9393283170129179                0           0           0
          33           1  0.88862900000000000       -2.3238810744328555       -3.1367704311521192       -4.8725592939441915                0           0           0
          34           1  0.86158199999999996       -3.0697323919124528       -2.8368280242696029       -5.5400297693816967                0           0           0
          35           1   1.1209890000000000       -1.3087943238498001       -3.3575141855326396       -5.2627255043808061                0           0           0
          36           1   1.2420370000000001      -0.20240802823509974       -2.9260819515357519       -4.7183303787040449                0           0           0
          37           1  0.88274100000000000       -1.0390988112864523       -2.3292815601907364       -5.1657747719172944                0           0           0
          38           1   1.0668899999999999       0.70381172512096235       -2.4467057134292713       -5.4127650695651042                0           0           0
          39           1   1.1892499999999999        1.8749013530859289       -2.5765936189708669       -5.0880659046498184                0           0           0
          40           1  0.78319600000000000        2.8217172029398654       -2.8164431315514546       -5.3732913025162121                0           0           0
          41           1  0.77194799999999997        2.7246780023705703       -2.2999118989131766       -4.5338273993052436                0           0           0
          42           1  0.74873199999999995        3.6761734681007923       -3.3153782219223622       -5.1804170827636220                0           0           0
          43           1   1.0263439999999999        4.5175809531963775       -3.2125259028995998       -4.7486334973064075                0           0           0
          44           1  0.81308199999999997        4.5525688636028256       -2.4953538080034932       -5.4202425639725318                0           0           0
          45           1   1.1161060000000000        3.6444737572898838       -2.3682036092525713       -4.9668510398536201                0           0           0
          46           1   1.2125560000000000        5.4606283528750179       -2.4240080698370301       -4.9148160622187627                0           0           0
          47           1  0.74192100000000005       -5.0712011924399141       -2.0719385073744836       -5.2923785924613629                0           0           0
          48           1  0.91800800000000005       -4.1399399815413656       -1.5501114234394047       -5.5012381886887107                0           0           0
          49           1  0.83222700000000005       -3.2261154160055852       -1.9501739774106630       -5.2744231701189124                0           0           0
          50           1   1.0095200000000000       -2.5284679127642642       -1.2226699988285157       -4.8865839773809725                0           0           0
          51           1   1.4893410000000000       -2.1319087394240670       -2.1936291385270641       -5.5781811909994570                0           0           0
          52           1   1.2179240000000000       -1.3405889153469843       -1.3219368254217869       -4.7682621923210640                0           0           0
          53           1   1.0644769999999999      -0.21638804604449735       -1.6517719656180265       -5.2136224632696990                0           0           0
          54           1   1.3780330000000001       0.97157672000091377       -1.2730158973770429       -5.0264037217055364                0           0           0
          55           1   1.0451729999999999        2.1555344343371043       -1.4296161222234405       -4.8224654285308945                0           0           0
          56           1  0.79520100000000005        3.6407756616165070       -1.3763527688858010       -5.2468142687839112                0           0           0
          57           1   1.0204660000000001        4.4330914426097046       -1.5942798769737481       -4.6000250461094048                0           0           0
          58           1  0.80856499999999998        5.3364778697098423       -1.3795862879329457       -5.0192495836400814                0           0           0
          59           1   1.3538969999999999       -5.0551009122258863       -1.0753953876417528       -4.9863143602233251                0           0           0
          60           1  0.75854699999999997       -4.0621886605107100      -0.67696327985830074       -5.1845774318248878                0           0           0
          61           1  0.73175199999999996       -2.4334369545762802      -0.43031500949094426       -5.3668908231149128                0           0           0
          62           1   1.0328729999999999       -3.2250937985742087      -0.32040172952395718       -4.8596330478044747                0           0           0
          63           1  0.75083299999999997       -1.6062321319802537      -0.29558551521483256       -5.2681982525138995                0           0           0
          64           1  0.82179500000000005       -1.8873678397589142       -1.0762951231071201       -5.6597130648374483                0           0           0
          65           1  0.90665300000000004      -7.92086369580058403E-003 -0.65331864140792373       -4.8656388823550891                0           0           0
          66           1  0.88653700000000002      -0.93679143693756028      -0.30241325311579903       -4.6166225411968895                0           0           0
          67           1   1.1960150000000001       0.61441959231961896      -5.71256907885153709E-002  -5.5088998572576431                0           0           0
          68           1   1.0855290000000000        1.7633172087787496      -0.25743716088537916       -4.9778691136571798                0           0           0
          69           1  0.97821599999999997        2.8766909403504020      -0.73793004607817103       -5.2600253921491262                0           0           0
          70           1   1.4363210000000000        3.8777845718208397      -0.47025237963037458       -4.6854612221218872                0           0           0
          71           1   1.1656560000000000        5.2186621016741146      -0.35844018529694477       -4.9057609391825237                0           0           0
          72           1   1.0241950000000000       -5.1413199439601520       5.84544955460302162E-002  -5.4444856593758715                0           0           0
          73           1  0.83424600000000004       -4.6098793110100029       0.76634512874426175       -4.9648144807483758                0           0           0
          74           1   1.2242780000000000       -5.7180833392640320       0.90230353934409635       -4.8383570699042497                0           0           0
          75           1   1.2615920000000000       -3.9361778812732426       0.26467148285352504       -5.6883722113448263                0           0           0
          76           1  0.96946900000000003       -2.7355870340251172       0.42398359266625807       -5.5134211741999071                0           0           0
          77           1   1.0105480000000000       -3.3807558554222594       0.85882504019964578       -4.7509991896065387                0           0           0
          78           1   1.1696240000000000       -1.6381254901659670       0.71619472169243004       -5.3749497180806571                0           0           0
          79           1  0.91265600000000002       -2.2973404395013262        1.0230429792159370       -4.5816914867317893                0           0           0
          80           1  0.77751099999999995      -0.66538274101527062       0.45594830848264589       -5.3562553303895690                0           0           0
          81           1  0.88239800000000002       0.43237118318922008        1.0349720203394179       -5.3359754662151362                0           0           0
          82           1  0.79924200000000001        1.0776276467757127       0.44267860899070399       -4.6727572951678447                0           0           0
          83           1   1.1011640000000000        1.4541256844677131       0.81882522232862520       -5.6064795352115455                0           0           0
          84           1   1.4763390000000001        2.1790347436079447       0.88752848077884838       -4.5388668584623248                0           0           0
          85           1  0.85063500000000003        2.9572423895533824       0.18439814143142819       -4.8869864059463666                0           0           0
          86           1  0.83979999999999999        3.6428142924356131       0.21018208103954450       -5.5418091745481055                0           0           0
          87           1   1.1119710000000000        4.4778880912548544       0.66204429058677761       -5.0024088916763940                0           0           0
          88           1  0.92940100000000003       -5.4559629542141508        1.9601798127983585       -5.0987373076515476                0           0           0
          89           1  0.98624599999999996       -4.6161242535902112        2.3564694078717690       -5.6272905449480808                0           0           0
          90           1  0.88377099999999997       -3.8565147033612259        1.4242760594629820       -5.5079414395982313                0           0           0
          91           1   1.4289920000000000       -4.4193478048426531        1.7666042360143956       -4.5644313201210576                0           0           0
          92           1   1.2863240000000000       -2.6715102781311590        1.6169047908442415       -5.4896373462630477                0           0           0
          93           1  0.83280200000000004       -3.2644908096250536        1.8629167424287472       -4.5911620608753827                0           0           0
          94           1  0.91532000000000002       -1.5870567203071548        1.8503836577409123       -5.2080849498112372                0           0           0
          95           1   1.0549850000000001      -0.61669194093899193        1.4270633709490603       -5.3305345469616201                0           0           0
          96           1   1.4844250000000001       0.40704768585535511        2.1886341396487605       -5.4380947670447641                0           0           0
          97           1  0.86414400000000002        1.4765322252731012        1.8117198530618293       -5.3075321053203117                0           0           0
          98           1   1.3125690000000001        2.4426714220890169        2.2805270750618263       -5.1476093199874411                0           0           0
          99           1  0.82318199999999997        2.3807429053908820        1.2564041342104524       -5.6237260770471718                0           0           0
         100           1   1.2526790000000001        3.4009440767256898        1.2333204345866902       -5.3646032844658560                0           0           0
         101           1   1.3715560000000000        4.6944917500204077        1.9433578226712633       -5.2159258551415899                0           0           0
         102           1   1.1018300000000001       -5.2712653524044253        2.9228139528949288       -4.6571232770099362                0           0           0
         103           1   1.0932630000000001       -3.5685052269682025        2.4610835255778660       -5.3442189860881220                0           0           0
         104           1  0.91189900000000002       -4.1197686694993800        2.8856567127573740       -4.5133105668617777                0           0           0
         105           1  0.73728300000000002       -2.6125131008667450        2.6404012996739681       -5.2598432317875670                0           0           0
         106           1  0.79696199999999995       -3.3108243766238599        3.4023163148840005       -5.2542170485081918                0           0           0
         107           1   1.2884510000000000       -1.6751021829228758        2.9521136199876707       -4.9484960864590652                0           0           0
         108           1  0.90628100000000000      -0.72583054548013415        2.3955244645061100       -4.7465349201890543                0           0           0
         109           1   1.2439519999999999      -0.38427025613230548        3.3561325186114139       -5.2009116201142866                0           0           0
         110           1  0.85372000000000003      -0.78267751916950790        2.4266696136399446       -5.7219449257437223                0           0           0
         111           1  0.79320299999999999       0.61295335651345084        3.3025949126964704       -5.6005464213035818                0           0           0
         112           1  0.83657099999999995        1.1746712251450813        2.4684844538527848       -4.6481310748876066                0           0           0
         113           1  0.79898800000000003        2.9603257505338725        3.1894894303144543       -4.7869895327608276                0           0           0
         114           1  0.97961900000000002        3.5954461000089886        2.3816400615002404       -4.7899094766316921                0           0           0
         115           1  0.80490099999999998        4.3407715470616761        2.9618574919494911       -5.0318124745990067                0           0           0
         116           1  0.76785300000000001        5.2755852733020348        2.8444670591153152       -5.1952788670609058                0           0           0
         117           1  0.78729899999999997       -4.9531404184290881        4.4943795233774058       -5.4847660802014406                0           0           0
         118           1  0.86933700000000003       -5.5498976057311609        3.5904270925455037       -5.4405371529817881                0           0           0
         119           1   1.4795579999999999       -4.3759283476994124        3.5613230976266941       -5.4164983202896249                0           0           0
         120           1   1.1486650000000000       -3.1787142017501555        4.3785617709959457       -5.0834138187867657                0           0           0
         121           1  0.75789499999999999       -2.3824048094329058        3.7433146041096279       -4.9451905816779096                0           0           0
         122           1  0.80026200000000003       -2.3167144941564053        4.4469362823419853       -5.6163070888628033                0           0           0
         123           1  0.84546600000000005       -1.5238371853601080        3.9565593585499919       -5.5393175054549211                0           0           0
         124           1  0.74727200000000005       -1.2046841811102027        3.8552912316314618       -4.6783044306347712                0           0           0
         125           1   1.1842509999999999       -1.9049294736221780        4.6020203688831476       -4.6945334820615852                0           0           0
         126           1   1.0372950000000001      -0.65271224467355093        4.5118148373169813       -5.4102870044444336                0           0           0
         127           1  0.75573400000000002       0.26170328984867108        4.1605176141868014       -5.1411692165640792                0           0           0
         128           1  0.90554000000000001        1.2387911997322529        4.0868806205174337       -5.6181655793096699                0           0           0
         129           1  0.73019400000000001        1.8116038970990269        4.2126697863057991       -4.6985414759610009                0           0           0
         130           1   1.1501790000000001        2.1518881374822962        3.5478088535414578       -5.3309538135824717                0           0           0
         131           1   1.0361840000000000        3.0251994957026600        4.2500279199380113       -5.0793019387046412                0           0           0
         132           1  0.78415599999999996        3.9302973207180223        3.9074400354330905       -5.1489284742246664                0           0           0
         133           1  0.84128000000000003        4.6839902326893963        4.1817270539042415       -4.6292187674637457                0           0           0
         134           1   1.3047489999999999        4.8099797080049687        3.6882253538874092       -5.6346325747488448                0           0           0
         135           1  0.87163800000000002       -5.3663135193791875        5.3262443212850723       -5.1923235428007573                0           0           0
         136           1   1.1479109999999999       -4.3643714579088613        4.7483381409832148       -4.6927145534008128                0           0           0
         137           1  0.85967499999999997       -3.6091125529209909        5.3405482585677895       -5.1007918406918318                0           0           0
         138           1  0.80051799999999995       -4.4906644647566853        5.3882851075429503       -5.5071849519092693                0           0           0
         139           1   1.1004989999999999       -2.5912938881608363        5.4370636899197429       -5.4097554488329589                0           0           0
         140           1  0.95438500000000004       -1.5442055191566570        5.6911643066728246       -5.2019962870214540                0           0           0
         141           1  0.98720399999999997      -0.35387630264680414        5.6390282039077491       -5.5645358700919250                0           0           0
         142           1  0.86126300000000000       0.22562471357619707        5.0168891768433035       -4.8466864854126124                0           0           0
         143           1  0.79245800000000000        1.0899571154815773        4.6970218930115326       -4.8034462477285844                0           0           0
         144           1   1.2686580000000001        1.9923115626224606        4.9443012076335524       -5.3328909605169681                0           0           0
         145           1  0.86478800000000000        2.9180765402331090        5.2697543225609547       -4.8630725068094840                0           0           0
         146           1  0.73688299999999995        3.1249542370578762        5.0173716845730336       -5.7112797305420928                0           0           0
         147           1   1.4304490000000001        3.9915011914022287        4.9938567991433604       -4.9136017600108790                0           0           0
         148           1  0.76117100000000004        5.1014961331947948        5.0301898301544554       -5.0210114953940268                0           0           0
         149           1  0.81904200000000005        4.6138948395381334        4.8800810570960049        5.6740309814593317                0           0           0
         150           1  0.74355499999999997       -5.1827761519505211       -5.2316867168352195       -3.7781132134345166                0           0           0
         151           1  0.76271500000000003       -3.9024180863397557       -5.0070818785749962       -3.9556482842925322                0           0           0
         152           1  0.76898400000000000       -2.4887671604472965       -4.8060648366878409       -4.0474637387954866                0           0           0
         153           1   1.0236600000000000       -3.1908841117812647       -5.5601497124467016       -3.5215623061694168                0           0           0
         154           1  0.73077700000000001       -1.4570704013020199       -4.9312293626222390       -3.7342699872582998                0           0           0
         155           1   1.1202880000000000       -2.0242436949843192       -5.6729023224218915       -4.1941584982819355                0           0           0
         156           1  0.76807899999999996       -1.1909096251574178       -5.1706867739982458       -4.5087239269857040                0           0           0
         157           1   1.3321630000000000      -0.42748737260533787       -4.9764400004454465       -3.6622663956745591                0           0           0
         158           1  0.80179999999999996       0.65938459657870929       -4.9179425082581192       -3.9453174340237140                0           0           0
         159           1  0.94373200000000002        1.6158223266411218       -5.0651134219979443       -4.0328081237753377                0           0           0
         160           1  0.95481799999999994        3.1759115193758269       -4.6761244047847308       -4.5084174960606935                0           0           0
         161           1   1.4699640000000000        2.7711591838373852       -5.6446136408340841       -3.8617278978601739                0           0           0
         162           1   1.3309860000000000        4.2484144531796879       -5.0911333274055464       -4.0904128156695760                0           0           0
         163           1   1.1672389999999999        5.5641971108531578       -5.5003281981101457       -4.4544867892875395                0           0           0
         164           1  0.96901499999999996       -5.4435854877512178       -4.3980577605992615       -4.4222184859019338                0           0           0
         165           1   1.1382319999999999       -4.6482550969227781       -4.3870705043523799       -3.6093437806796338                0           0           0
         166           1   1.0295930000000000       -5.6952748621475857       -3.7186735928418750       -3.5829187560525519                0           0           0
         167           1  0.75638000000000005       -4.1016858558528053       -3.5511939222929252       -3.8343884533669712                0           0           0
         168           1   1.4976440000000000       -3.2659415154573121       -4.1955999523624774       -3.6174267065844701                0           0           0
         169           1   1.3677140000000001       -1.8372139338475266       -3.9910155628850328       -4.1972083718865152                0           0           0
         170           1  0.87362600000000001      -0.83361644083026132       -4.3102214429384125       -4.4485907563389269                0           0           0
         171           1  0.77448300000000003      -0.48589213688341104       -3.9119530597528400       -3.6624751399056268                0           0           0
         172           1   1.1426689999999999       0.18150967060174228       -4.1478146759714818       -4.4600124559691583                0           0           0
         173           1   1.6053649999999999        1.3728858721371990       -3.8507049257534458       -3.7892687816520318                0           0           0
         174           1  0.81254700000000002        2.3834372182598607       -4.4105914770962249       -4.0221816173706770                0           0           0
         175           1   1.5251770000000000        2.8628298040297029       -3.4525516770367681       -4.4882504541766846                0           0           0
         176           1  0.90739599999999998        3.8983275461856692       -3.9390316467708963       -4.1704640197273175                0           0           0
         177           1  0.91723800000000000        3.4627669468899480       -3.3077112561040316       -3.4509054411595468                0           0           0
         178           1  0.98055700000000001        4.9349907342306114       -4.1365237099992287       -4.2307131483034652                0           0           0
         179           1   1.4378010000000001       -4.9328147637751565       -3.2556048298756997       -4.4119730482332162                0           0           0