LAMMPS data file via write_data, version 17 Nov 2016, timestep = 0
      
  1500 atoms
      
1 atom types
  -5.7235712129999996        5.7235712129999996      xlo xhi
  -5.7235712129999996        5.7235712129999996      ylo yhi
  -5.7235712129999996        5.7235712129999996      zlo zhi
Masses
      
1 1
      
Pair Coeffs # lj/poly
      
                               1 1.0 1.0 2.025 1.25 0.2
      
Atoms # charge
      
           1           1  0.82965299999999997       -5.5449264554383380       -4.8807735078913819       -5.2672532489923141                0           0           0
           2           1   1.5413479999999999       -4.5755165269166715       -5.2715865382397871       -4.7564955402905111                0           0           0
           3           1  0.86062700000000003       -3.7967448985330527       -4.7685696125751100       -5.4877327722803591                0           0           0
           4           1   1.2325940000000000       -3.1694932037107875       -5.2174066213981787       -4.6504399971680632                0           0           0
           5           1  0.92110899999999996       -2.0805123947213344       -4.9031899056988522       -4.9096756181075323                0           0           0
           6           1   1.5043869999999999       -1.0402911274346227       -4.7539724430779327       -5.4716525016522883                0           0           0
           7           1  0.88103100000000001      -0.20379760645916001       -5.1722221871704805       -4.7391277683802731                0           0           0
           8           1  0.92227999999999999       0.28065872431149241       -4.6676255788327916       -5.4668887979457903                0           0           0
           9           1   1.5129459999999999       0.93547473848141305       -5.5154616483873387       -4.9742371306587634                0           0           0
          10           1  0.87097899999999995        2.1146352519009568       -5.5797657669515859       -4.7689891520623462                0           0           0
          11           1  0.82823300000000000        1.9352522971775343       -5.3969439870997835       -5.6936805064455775                0           0           0
          12           1   1.3333429999999999        3.0293251177568497       -5.3281758524466891       -5.5307980080423791                0           0           0
          13           1  0.81986499999999995        4.1210954248144009       -5.3087143212172059       -5.3205473516419532                0           0           0
          14           1  0.74748000000000003        3.5235149977068936       -5.5402051830111496       -4.6433093814136086                0           0           0
          15           1  0.86770400000000003        4.9151603826474588       -4.8157084732343751       -4.9845384296503870                0           0           0
          16           1  0.73948999999999998        4.6902963264922466       -5.6958843634853276       -4.7990792789126138                0           0           0
          17           1   1.1174949999999999       -4.8005831011833058       -4.1466113281961974       -5.5138613621430608                0           0           0
          18           1   1.0167780000000000       -3.9996257659034238       -4.1418082448347455       -4.6417840118975500                0           0           0
          19           1   1.0699300000000000       -2.8265688938582123       -4.0587342990227064       -4.8325977019528885                0           0           0
          20           1  0.76943799999999996       -1.9499270336486978       -4.0835220766216080       -5.3118981411003192                0           0           0
          21           1   1.0829869999999999      -0.25520689258750728       -3.7672721523404773       -5.6909789004521114                0           0           0
          22           1   1.3859269999999999       0.96523808600344996       -3.6929411514994208       -5.3525483917653967                0           0           0
          23           1  0.77240699999999995        1.1065068191713490       -4.5025290153630717       -4.6351430458491540                0           0           0
          24           1   1.1917739999999999        2.0317082476765176       -4.5396417875031592       -4.9959549145103921                0           0           0
          25           1  0.76583000000000001        1.8036707853389746       -3.5388040507070078       -4.7295320948593043                0           0           0
          26           1  0.97774899999999998        2.1577243408608995       -3.5646397923485553       -5.6159431532585824                0           0           0
          27           1  0.83108000000000004        2.9285474190172351       -4.1953710050614577       -5.3755909705696290                0           0           0
          28           1   1.2215430000000000        3.9782327744870045       -4.2769830104834288       -5.2466052112972514                0           0           0
          29           1   1.3806490000000000        5.3972303992820176       -3.8331791287168047       -5.3299326869296282                0           0           0
          30           1   1.0400879999999999       -5.1875410796975174       -2.9408505319541396       -5.6133433180402896                0           0           0
          31           1  0.77126099999999997       -4.2967745904235528       -3.2807508767324958       -5.2745774422873231                0           0           0
          32           1  0.92384800000000000       -4.2688139822649900       -2.3899407217081281       -4.9323951819498824                0           0           0
          33           1  0.88862900000000000       -2.3155760773155230       -3.1294608225160760       -4.8778891348999593                0           0           0
          34           1  0.86158199999999996       -3.0709981758186133       -2.8330069670724169       -5.5291133214888317                0           0           0
          35           1   1.1209890000000000       -1.3307159434986922       -3.3145322419897103       -5.3201647240862142                0           0           0
          36           1   1.2420370000000001      -0.20556505290718530       -2.9482186019478078       -4.7306209079198132                0           0           0
          37           1  0.88274100000000000       -1.0362241979768259       -2.3155469865876839       -5.1623917464045226                0           0           0
          38           1   1.0668899999999999       0.70066351721675879       -2.4519894579488724       -5.4125120293169724                0           0           0
          39           1   1.1892499999999999        1.8767394813185208       -2.5789818497845394       -5.0876838939831206                0           0           0
          40           1  0.78319600000000000        2.8336918248855216       -2.8112712821340211       -5.3669033429074071                0           0           0
          41           1  0.77194799999999997        2.7321760304942124       -2.2948821905542593       -4.5415848697957966                0           0           0
          42           1  0.74873199999999995        3.6615295448119962       -3.3033064183984533       -5.1922211525507072                0           0           0
          43           1   1.0263439999999999        4.5061426588606448       -3.2558507310975391       -4.7749656491822234                0           0           0
          44           1  0.81308199999999997        4.5410102554256699       -2.5179658761944501       -5.4342131587697322                0           0           0
          45           1   1.1161060000000000        3.6606733500757080       -2.3490337930528438       -4.9674266035414023                0           0           0
          46           1   1.2125560000000000        5.4071362512102752       -2.4174971948113018       -4.8853630046899497                0           0           0
          47           1  0.74192100000000005       -4.9829359553736543       -2.0336090076670064       -5.3571408450774056                0           0           0
          48           1  0.91800800000000005       -4.1447346169770602       -1.5503455695610384       -5.5029557074439062                0           0           0
          49           1  0.83222700000000005       -3.2296048195803144       -1.9443359088569458       -5.2775716263465151                0           0           0
          50           1   1.0095200000000000       -2.5252694727244944       -1.2185354816091571       -4.8848289329885892                0           0           0
          51           1   1.4893410000000000       -2.1350776210655940       -2.1868452112327010       -5.5795144979289937                0           0           0
          52           1   1.2179240000000000       -1.3363761496248179       -1.3160374611270598       -4.7716790509724039                0           0           0
          53           1   1.0644769999999999      -0.21422462114768859       -1.6505047095084837       -5.2214207570282518                0           0           0
          54           1   1.3780330000000001       0.97082285015010594       -1.2756947599856536       -5.0264232326387344                0           0           0
          55           1   1.0451729999999999        2.1550885361348850       -1.4296955230048036       -4.8233697412950152                0           0           0
          56           1  0.79520100000000005        3.6464256153289494       -1.3596036943654530       -5.2579477525206180                0           0           0
          57           1   1.0204660000000001        4.4597295380262789       -1.5489980031167692       -4.6134131832246199                0           0           0
          58           1  0.80856499999999998        5.3576917569188307       -1.3702194710253854       -5.0300632544907984                0           0           0
          59           1   1.3538969999999999       -5.0463367870791398       -1.0611096362860311       -4.9825363525526889                0           0           0
          60           1  0.75854699999999997       -4.0561006382479388      -0.67465137624646676       -5.1869746142841322                0           0           0
          61           1  0.73175199999999996       -2.4319645899394446      -0.42745662537588824       -5.3682855063394959                0           0           0
          62           1   1.0328729999999999       -3.2213577510682305      -0.31606360428335289       -4.8609687445251426                0           0           0
          63           1  0.75083299999999997       -1.6044863652000538      -0.29390195654379525       -5.2687057624891720                0           0           0
          64           1  0.82179500000000005       -1.8868654074644313       -1.0726620608740740       -5.6612473089449793                0           0           0
          65           1  0.90665300000000004      -8.48887080888616197E-003 -0.65345321272226276       -4.8681576631401322                0           0           0
          66           1  0.88653700000000002      -0.93484028865019297      -0.29926095001839936       -4.6181687285691551                0           0           0
          67           1   1.1960150000000001       0.61590594753734607      -5.73291032173761650E-002  -5.5084707546135521                0           0           0
          68           1   1.0855290000000000        1.7628096141218199      -0.25856661251177293       -4.9778635694548221                0           0           0
          69           1  0.97821599999999997        2.8743458059725082      -0.73412104849709792       -5.2582794665689221                0           0           0
          70           1   1.4363210000000000        3.8762990033725071      -0.45842947282728819       -4.6854434442069230                0           0           0
          71           1   1.1656560000000000        5.2208359644796225      -0.35465511667661431       -4.9027568990614823                0           0           0
          72           1   1.0241950000000000       -5.1436742211573323       6.32574805631938020E-002  -5.4493853679490671                0           0           0
          73           1  0.83424600000000004       -4.6106420877488059       0.76702655777910422       -4.9652115986366301                0           0           0
          74           1   1.2242780000000000       -5.7162800941657936       0.90507177971613206       -4.8364439918214082                0           0           0
          75           1   1.2615920000000000       -3.9360331176920136       0.26725245160587896       -5.6890437713863538                0           0           0
          76           1  0.96946900000000003       -2.7350076325848005       0.42724130740252964       -5.5144731993750113                0           0           0
          77           1   1.0105480000000000       -3.3825235782457259       0.86033888994439600       -4.7518507043916731                0           0           0
          78           1   1.1696240000000000       -1.6375297266132840       0.71754166163408595       -5.3737786626661830                0           0           0
          79           1  0.91265600000000002       -2.3009075542547608        1.0190199439969581       -4.5815875566963253                0           0           0
          80           1  0.77751099999999995      -0.66507338817521600       0.45581731036840267       -5.3561546007579741                0           0           0
          81           1  0.88239800000000002       0.43395215180454549        1.0349231631005296       -5.3362318065823287                0           0           0
          82           1  0.79924200000000001        1.0786268737566251       0.44378398231656568       -4.6719528653964231                0           0           0
          83           1   1.1011640000000000        1.4552503349128125       0.81839253691618286       -5.6070045500647945                0           0           0
          84           1   1.4763390000000001        2.1769990853042529       0.88726735833940573       -4.5380652724759516                0           0           0
          85           1  0.85063500000000003        2.9589265007114882       0.19100355829327054       -4.8896956716912481                0           0           0
          86           1  0.83979999999999999        3.6463315030799333       0.21220858809229881       -5.5457284699999709                0           0           0
          87           1   1.1119710000000000        4.4810273608339699       0.66607131276667086       -5.0007283219190359                0           0           0
          88           1  0.92940100000000003       -5.4551846963767314        1.9610574801713536       -5.0999933124261769                0           0           0
          89           1  0.98624599999999996       -4.6146732744643737        2.3583561670892284       -5.6269274095383190                0           0           0
          90           1  0.88377099999999997       -3.8555612454961516        1.4276916569214606       -5.5088642555047649                0           0           0
          91           1   1.4289920000000000       -4.4181357793225979        1.7670279603962502       -4.5646575695767631                0           0           0
          92           1   1.2863240000000000       -2.6708915171339935        1.6186627752571150       -5.4883875773727553                0           0           0
          93           1  0.83280200000000004       -3.2639234480717896        1.8638859302404347       -4.5903929866497668                0           0           0
          94           1  0.91532000000000002       -1.5857190034774762        1.8525083017347121       -5.2075081747542713                0           0           0
          95           1   1.0549850000000001      -0.61598446529495909        1.4268294281875757       -5.3304439257974225                0           0           0
          96           1   1.4844250000000001       0.40769848290272392        2.1881605843421612       -5.4380871336577687                0           0           0
          97           1  0.86414400000000002        1.4771685637404941        1.8107616926580992       -5.3059251909447553                0           0           0
          98           1   1.3125690000000001        2.4438773200543995        2.2792970013993266       -5.1468056722880871                0           0           0
          99           1  0.82318199999999997        2.3821273646847168        1.2554360997643208       -5.6229870231244359                0           0           0
         100           1   1.2526790000000001        3.4021390393830497        1.2332527292638904       -5.3629566248755154                0           0           0
         101           1   1.3715560000000000        4.6957161237165881        1.9452041810286413       -5.2156688785864587                0           0           0
         102           1   1.1018300000000001       -5.2692618575788099        2.9231520497603860       -4.6571261328402054                0           0           0
         103           1   1.0932630000000001       -3.5668514293695566        2.4645470887886560       -5.3434159657746898                0           0           0
         104           1  0.91189900000000002       -4.1198359130581617        2.8858938786372157       -4.5124882547662581                0           0           0
         105           1  0.73728300000000002       -2.6118504654059707        2.6425448342264026       -5.2592541871000593                0           0           0
         106           1  0.79696199999999995       -3.3074240766050136        3.4072311829071644       -5.2513508160832068                0           0           0
         107           1   1.2884510000000000       -1.6757650004925670        2.9546811204519177       -4.9478338674796456                0           0           0
         108           1  0.90628100000000000      -0.72653456855806553        2.3964567147741267       -4.7461851449721868                0           0           0
         109           1   1.2439519999999999      -0.38399822548976026        3.3553928503522812       -5.2007673734080759                0           0           0
         110           1  0.85372000000000003      -0.78084281130422273        2.4263967318115274       -5.7218588663090442                0           0           0
         111           1  0.79320299999999999       0.61430249092619960        3.3015173667242035       -5.5991970707778771                0           0           0
         112           1  0.83657099999999995        1.1749298416770673        2.4690713267208899       -4.6483590667150718                0           0           0
         113           1  0.79898800000000003        2.9614525213734009        3.1891828320536693       -4.7856158184213733                0           0           0
         114           1  0.97961900000000002        3.5965886333301178        2.3817815491249750       -4.7890545862200886                0           0           0
         115           1  0.80490099999999998        4.3410048841291093        2.9628394010865851       -5.0310352521386266                0           0           0
         116           1  0.76785300000000001        5.2785800574084387        2.8452291862609087       -5.1951426391144917                0           0           0
         117           1  0.78729899999999997       -4.9515445635964417        4.4954632177273979       -5.4858838052358641                0           0           0
         118           1  0.86933700000000003       -5.5481271123399640        3.5904535671515490       -5.4406001757997995                0           0           0
         119           1   1.4795579999999999       -4.3740764557338014        3.5629100364117203       -5.4159087310649694                0           0           0
         120           1   1.1486650000000000       -3.1835014764945893        4.3863164858297292       -5.0819352298233174                0           0           0
         121           1  0.75789499999999999       -2.3876239110287112        3.7460186328637448       -4.9451801114905187                0           0           0
         122           1  0.80026200000000003       -2.3209023134454099        4.4464725079767042       -5.6119805282415101                0           0           0
         123           1  0.84546600000000005       -1.5276366502550376        3.9559354514760265       -5.5380015076710301                0           0           0
         124           1  0.74727200000000005       -1.2035838483553967        3.8585611421429906       -4.6778213293661262                0           0           0
         125           1   1.1842509999999999       -1.9065582443459217        4.6040610228674765       -4.6926543504738731                0           0           0
         126           1   1.0372950000000001      -0.65713210512399556        4.5112183606780416       -5.4082229493951131                0           0           0
         127           1  0.75573400000000002       0.26042472076282674        4.1604196213776152       -5.1395771325760187                0           0           0
         128           1  0.90554000000000001        1.2425289397590795        4.0844279616415040       -5.6172850167663118                0           0           0
         129           1  0.73019400000000001        1.8130475832118451        4.2096353157720472       -4.6997638520443603                0           0           0
         130           1   1.1501790000000001        2.1537622477293334        3.5456474400628437       -5.3299054499482672                0           0           0
         131           1   1.0361840000000000        3.0254991208168498        4.2502431734755337       -5.0763803723847643                0           0           0
         132           1  0.78415599999999996        3.9313753053945923        3.9083618110628109       -5.1477871401398714                0           0           0
         133           1  0.84128000000000003        4.6849630621988361        4.1822530111764191       -4.6288749451429112                0           0           0
         134           1   1.3047489999999999        4.8110187457455602        3.6878915782052886       -5.6340380225339057                0           0           0
         135           1  0.87163800000000002       -5.3646168513916539        5.3257173918470535       -5.1960158236319200                0           0           0
         136           1   1.1479109999999999       -4.3637672673049543        4.7519227901710739       -4.6923381295682356                0           0           0
         137           1  0.85967499999999997       -3.6125154816168177        5.3549557664236129       -5.0947061045016664                0           0           0
         138           1  0.80051799999999995       -4.4904222039214652        5.3880713189211331       -5.5108513873694305                0           0           0
         139           1   1.1004989999999999       -2.5964840139662679        5.4395788931932678       -5.4114293000923528                0           0           0
         140           1  0.95438500000000004       -1.5492317249405039        5.6707448572960626       -5.1898193485914987                0           0           0
         141           1  0.98720399999999997      -0.33599372401758831        5.6309619676923983       -5.5506168111987657                0           0           0
         142           1  0.86126300000000000       0.22903870651362546        5.0177738437736377       -4.8421504482080540                0           0           0
         143           1  0.79245800000000000        1.0936896616691820        4.6992508088929608       -4.7902219375121993                0           0           0
         144           1   1.2686580000000001        1.9921540419175008        4.9449451456309745       -5.3294098460851753                0           0           0
         145           1  0.86478800000000000        2.9176960915923544        5.2700535234063342       -4.8574017151106492                0           0           0
         146           1  0.73688299999999995        3.1224641742490249        5.0176201521539685       -5.7069178273776853                0           0           0
         147           1   1.4304490000000001        3.9914293191928660        4.9948095365221459       -4.9114470680620821                0           0           0
         148           1  0.76117100000000004        5.1023194096852560        5.0300629202825924       -5.0213511726160940                0           0           0
         149           1  0.81904200000000005        4.6141631567645511        4.8791682724447973        5.6756103100722157                0           0           0
         150           1  0.74355499999999997       -5.1718851747639052       -5.2326340046695776       -3.7941861547883424                0           0           0
         151           1  0.76271500000000003       -3.8975263269950666       -5.0026029461645889       -3.9548834049967545                0           0           0
         152           1  0.76898400000000000       -2.4467116653521921       -4.7730109540994636       -4.0541636967480130                0           0           0
         153           1   1.0236600000000000       -3.1897628766408568       -5.5568724735111328       -3.5114522663917604                0           0           0
         154           1  0.73077700000000001       -1.4882803341873378       -4.9081164916391344       -3.7551861375548476                0           0           0
         155           1   1.1202880000000000       -2.0104306617107701       -5.6658150932326485       -4.1812714186410993                0           0           0
         156           1  0.76807899999999996       -1.1658404914817293       -5.1554643972607055       -4.4893088762423146                0           0           0
         157           1   1.3321630000000000      -0.46560839396371101       -4.9654696679864729       -3.6723770221456800                0           0           0
         158           1  0.80179999999999996       0.67712777637596488       -4.9371145371209035       -3.9284544189453943                0           0           0
         159           1  0.94373200000000002        1.6321165784459319       -5.0625689740267346       -4.0200477000071686                0           0           0
         160           1  0.95481799999999994        3.1749944617924495       -4.6746240980641165       -4.5106194807745421                0           0           0
         161           1   1.4699640000000000        2.7754177467531811       -5.6398624161789295       -3.8561116350093609                0           0           0
         162           1   1.3309860000000000        4.2511255931356970       -5.0899810181729732       -4.0924617507727543                0           0           0
         163           1   1.1672389999999999        5.5675370273857201       -5.5018696165851066       -4.4612984765249433                0           0           0
         164           1  0.96901499999999996       -5.4342681250523279       -4.3996931415780862       -4.4239413338328815                0           0           0
         165           1   1.1382319999999999       -4.6440633631428723       -4.3880773793137262       -3.6071005456542804                0           0           0
         166           1   1.0295930000000000       -5.6891909619992838       -3.7189383226733517       -3.5817787252873270                0           0           0
         167           1  0.75638000000000005       -4.0940778403671754       -3.5654182237875172       -3.8311669292416219                0           0           0
         168           1   1.4976440000000000       -3.2457046020370504       -4.2021249281573683       -3.6108241718733383                0           0           0
         169           1   1.3677140000000001       -1.7339681905332829       -4.0057456482763776       -4.2361265300479785                0           0           0
         170           1  0.87362600000000001      -0.74218717990417904       -3.9607566902070523       -4.7338018237038755                0           0           0
         171           1  0.77448300000000003      -0.48079559400448790       -3.9217022461266504       -3.6393132493527878                0           0           0
         172           1   1.1426689999999999       0.20514607591623601       -4.1805269560761387       -4.4257631731864606                0           0           0
         173           1   1.6053649999999999        1.3806395199340891       -3.8474336611580631       -3.7742437363082502                0           0           0
         174           1  0.81254700000000002        2.3888130776037642       -4.4081542143006320       -4.0149342693135450                0           0           0
         175           1   1.5251770000000000        2.8603154395972989       -3.4487243443011715       -4.4858733133018811                0           0           0
         176           1  0.90739599999999998        3.8977433401739514       -3.9386599985655719       -4.1809506259417759                0           0           0
         177           1  0.91723800000000000        3.4754312883481386       -3.2974840511623569       -3.4603318578806976                0           0           0
         178           1  0.98055700000000001        4.9435191453034975       -4.1407574154327920       -4.2284146683232038                0           0           0
         179           1   1.4378010000000001       -4.9238076197684011       -3.2570049608289517       -4.4118447876000797                0           0           0