LAMMPS data file via write_data, version 17 Nov 2016, timestep = 0
      
  1500 atoms
      
1 atom types
  -5.7235712129999996        5.7235712129999996      xlo xhi
  -5.7235712129999996        5.7235712129999996      ylo yhi
  -5.7235712129999996        5.7235712129999996      zlo zhi
Masses
      
1 1
      
Pair Coeffs # lj/poly
      
                               1 1.0 1.0 2.025 1.25 0.2
      
Atoms # charge
      
           1           1  0.82965299999999997       -5.5451307160148229       -4.8804690499924641       -5.2644790365511795                0           0           0
           2           1   1.5413479999999999       -4.5776700009599196       -5.2704826010775330       -4.7547803824021644                0           0           0
           3           1  0.86062700000000003       -3.7989239771712731       -4.7712907458262821       -5.4904086581890601                0           0           0
           4           1   1.2325940000000000       -3.1701775237974994       -5.2174499293684677       -4.6533860208691076                0           0           0
           5           1  0.92110899999999996       -2.0785367945107960       -4.9015896152120098       -4.9092678892069719                0           0           0
           6           1   1.5043869999999999       -1.0383459680752987       -4.7550393356512748       -5.4736623202440375                0           0           0
           7           1  0.88103100000000001      -0.20265051391035627       -5.1730592984448620       -4.7419799640318985                0           0           0
           8           1  0.92227999999999999       0.28314987630256105       -4.6687585121746622       -5.4702659859947280                0           0           0
           9           1   1.5129459999999999       0.93339585292539873       -5.5206932769099391       -4.9780328470760837                0           0           0
          10           1  0.87097899999999995        2.1145616112881145       -5.5810620939204449       -4.7738890256280140                0           0           0
          11           1  0.82823300000000000        1.9383310674226433       -5.3956952628419526       -5.6979051435582946                0           0           0
          12           1   1.3333429999999999        3.0332308626715534       -5.3260043973974289       -5.5322677750114604                0           0           0
          13           1  0.81986499999999995        4.1243988346255804       -5.3063587503930014       -5.3200550550166827                0           0           0
          14           1  0.74748000000000003        3.5243853245134158       -5.5414600538424095       -4.6439337361926620                0           0           0
          15           1  0.86770400000000003        4.9204254429833956       -4.8177811059822426       -4.9791469808232272                0           0           0
          16           1  0.73948999999999998        4.6908090868395487       -5.6956140988580515       -4.7963859249207150                0           0           0
          17           1   1.1174949999999999       -4.8018551168976327       -4.1486493094444645       -5.5199328231172116                0           0           0
          18           1   1.0167780000000000       -3.9987900482026570       -4.1424121527738551       -4.6463872934609558                0           0           0
          19           1   1.0699300000000000       -2.8265558846939483       -4.0591453005684457       -4.8357416536115805                0           0           0
          20           1  0.76943799999999996       -1.9483978933119128       -4.0838643700268245       -5.3139561251110186                0           0           0
          21           1   1.0829869999999999      -0.25452592655590500       -3.7678820612273780       -5.6925525822679353                0           0           0
          22           1   1.3859269999999999       0.96580755152483988       -3.6922161374576161       -5.3575615796546288                0           0           0
          23           1  0.77240699999999995        1.1026663204489022       -4.5049860024604751       -4.6446171334185005                0           0           0
          24           1   1.1917739999999999        2.0311803886581146       -4.5404856743396369       -5.0024744763031475                0           0           0
          25           1  0.76583000000000001        1.8034478761310062       -3.5399035807795678       -4.7346381326673566                0           0           0
          26           1  0.97774899999999998        2.1611333868071556       -3.5651846670152869       -5.6191521972742082                0           0           0
          27           1  0.83108000000000004        2.9352088358383330       -4.1991286152475764       -5.3751241312179179                0           0           0
          28           1   1.2215430000000000        3.9891449063256115       -4.2742893756257470       -5.2332441689750482                0           0           0
          29           1   1.3806490000000000        5.3898027419280332       -3.8301666908476939       -5.3252937727420493                0           0           0
          30           1   1.0400879999999999       -5.1686418462392201       -2.9696499263630383       -5.6252291015403912                0           0           0
          31           1  0.77126099999999997       -4.2841641246727580       -3.2883650858936058       -5.2652791783031798                0           0           0
          32           1  0.92384800000000000       -4.2802581917435454       -2.3931306056164989       -4.9336052124981977                0           0           0
          33           1  0.88862900000000000       -2.3158937633564438       -3.1301502968926962       -4.8796174344741328                0           0           0
          34           1  0.86158199999999996       -3.0691719125749595       -2.8368424100712173       -5.5343726924784242                0           0           0
          35           1   1.1209890000000000       -1.3311411684649554       -3.3136889032325896       -5.3231503518989536                0           0           0
          36           1   1.2420370000000001      -0.20814685855042026       -2.9463335131753956       -4.7342368611309693                0           0           0
          37           1  0.88274100000000000       -1.0382108960731022       -2.3145245710581985       -5.1648764389384443                0           0           0
          38           1   1.0668899999999999       0.69632061417769009       -2.4523412677172645       -5.4188364865189484                0           0           0
          39           1   1.1892499999999999        1.8672394368593794       -2.5790682726499483       -5.0911228312440491                0           0           0
          40           1  0.78319600000000000        2.8141308106836505       -2.8165986522141142       -5.3733873616455288                0           0           0
          41           1  0.77194799999999997        2.7170131753427107       -2.2986042367640409       -4.5389001609009778                0           0           0
          42           1  0.74873199999999995        3.6781950172665709       -3.3183112881560080       -5.1743994707082424                0           0           0
          43           1   1.0263439999999999        4.5217589700151049       -3.2084483171103302       -4.7457548447042193                0           0           0
          44           1  0.81308199999999997        4.5543857270611330       -2.4882743098935003       -5.4125224190248478                0           0           0
          45           1   1.1161060000000000        3.6391686198832041       -2.3710269595533249       -4.9674976414280643                0           0           0
          46           1   1.2125560000000000        5.4697148815969427       -2.4266433353952293       -4.9130961058222553                0           0           0
          47           1  0.74192100000000005       -5.0022034813767897       -2.0563581940272311       -5.3640131747393909                0           0           0
          48           1  0.91800800000000005       -4.1474635557406163       -1.5550518461441971       -5.5041052050019470                0           0           0
          49           1  0.83222700000000005       -3.2329169776231286       -1.9494186170386727       -5.2786713026126098                0           0           0
          50           1   1.0095200000000000       -2.5296139248570544       -1.2202703684699863       -4.8840131824539199                0           0           0
          51           1   1.4893410000000000       -2.1366442985542697       -2.1878742414577563       -5.5804443951542071                0           0           0
          52           1   1.2179240000000000       -1.3393327296899269       -1.3148895262817462       -4.7732967623633389                0           0           0
          53           1   1.0644769999999999      -0.21679721979835254       -1.6502241217421663       -5.2255247742609283                0           0           0
          54           1   1.3780330000000001       0.96919852084594904       -1.2768717047325318       -5.0296364472581976                0           0           0
          55           1   1.0451729999999999        2.1531634260982901       -1.4326715151438982       -4.8233043426876359                0           0           0
          56           1  0.79520100000000005        3.6402083564619616       -1.3779579805617015       -5.2480991466438818                0           0           0
          57           1   1.0204660000000001        4.4256121822152128       -1.5994810022194770       -4.5976379200591664                0           0           0
          58           1  0.80856499999999998        5.3301085010738962       -1.3828243204783917       -5.0111478961802964                0           0           0
          59           1   1.3538969999999999       -5.0611443369124132       -1.0809696332739334       -4.9878310225600853                0           0           0
          60           1  0.75854699999999997       -4.0647872578327373      -0.68082916234343660       -5.1854747694295540                0           0           0
          61           1  0.73175199999999996       -2.4353765936318283      -0.42964057367581532       -5.3677834030165164                0           0           0
          62           1   1.0328729999999999       -3.2269524577143280      -0.31944678422978967       -4.8617256579796990                0           0           0
          63           1  0.75083299999999997       -1.6073809160618531      -0.29704126681577314       -5.2683776992440103                0           0           0
          64           1  0.82179500000000005       -1.8915060899527449       -1.0748414343445729       -5.6616430472299477                0           0           0
          65           1  0.90665300000000004      -1.04882580772800438E-002 -0.65428723303754399       -4.8694304151801715                0           0           0
          66           1  0.88653700000000002      -0.93691116507986205      -0.29863290952783750       -4.6187503840032225                0           0           0
          67           1   1.1960150000000001       0.61408940006099400      -5.75465203624032640E-002  -5.5083515749237639                0           0           0
          68           1   1.0855290000000000        1.7603255445737247      -0.25951121056821158       -4.9763258405080002                0           0           0
          69           1  0.97821599999999997        2.8746447216455788      -0.73959567415366401       -5.2585477983859246                0           0           0
          70           1   1.4363210000000000        3.8771684591246576      -0.47148039203099579       -4.6854587895842412                0           0           0
          71           1   1.1656560000000000        5.2173501969889173      -0.35963150137543920       -4.9081898003449274                0           0           0
          72           1   1.0241950000000000       -5.1395753523318248       5.68236717928609636E-002  -5.4430570059751293                0           0           0
          73           1  0.83424600000000004       -4.6093708016571213       0.76624428795606736       -4.9654836234949231                0           0           0
          74           1   1.2242780000000000       -5.7179121764859948       0.90198577548859582       -4.8388439018655793                0           0           0
          75           1   1.2615920000000000       -3.9366611344357985       0.26442681773069321       -5.6894024297360790                0           0           0
          76           1  0.96946900000000003       -2.7364136130557903       0.42491938100821347       -5.5143007236051673                0           0           0
          77           1   1.0105480000000000       -3.3822784623735496       0.85834550413219635       -4.7516682525964011                0           0           0
          78           1   1.1696240000000000       -1.6385028931987984       0.71513330829941868       -5.3749910486672947                0           0           0
          79           1  0.91265600000000002       -2.2995575374945751        1.0198472419961115       -4.5821596884395044                0           0           0
          80           1  0.77751099999999995      -0.66592540151819257       0.45512576694055173       -5.3564062307443221                0           0           0
          81           1  0.88239800000000002       0.43246961567827924        1.0349901647695630       -5.3358900626222816                0           0           0
          82           1  0.79924200000000001        1.0774537201412500       0.44448784108073447       -4.6717319170129485                0           0           0
          83           1   1.1011640000000000        1.4536786799674104       0.81805812706802872       -5.6056200048333498                0           0           0
          84           1   1.4763390000000001        2.1768679746093182       0.88636246684549747       -4.5370816926042856                0           0           0
          85           1  0.85063500000000003        2.9554785580362832       0.18300223072510313       -4.8850791366517692                0           0           0
          86           1  0.83979999999999999        3.6399475275611639       0.21028453308980488       -5.5405191240170515                0           0           0
          87           1   1.1119710000000000        4.4774662858586218       0.66152409055097294       -5.0022651865570520                0           0           0
          88           1  0.92940100000000003       -5.4543687166289079        1.9599185792250866       -5.0979892301154006                0           0           0
          89           1  0.98624599999999996       -4.6153489681392337        2.3572772174436416       -5.6268377126152052                0           0           0
          90           1  0.88377099999999997       -3.8556042030012403        1.4258459787884812       -5.5085345887343697                0           0           0
          91           1   1.4289920000000000       -4.4186213171599853        1.7655324400593013       -4.5646439289128580                0           0           0
          92           1   1.2863240000000000       -2.6715305456317142        1.6171422377414570       -5.4888765856511856                0           0           0
          93           1  0.83280200000000004       -3.2650302159574549        1.8626065387062241       -4.5914396400758521                0           0           0
          94           1  0.91532000000000002       -1.5868611926900371        1.8512830535250711       -5.2066941434034897                0           0           0
          95           1   1.0549850000000001      -0.61699345998962674        1.4262712096803654       -5.3292806310496488                0           0           0
          96           1   1.4844250000000001       0.40697080356804083        2.1883625523084573       -5.4369817159325322                0           0           0
          97           1  0.86414400000000002        1.4765950352905346        1.8108778250268616       -5.3052811884406204                0           0           0
          98           1   1.3125690000000001        2.4427506206227267        2.2804273624995872       -5.1457140844694909                0           0           0
          99           1  0.82318199999999997        2.3801109687100812        1.2558308709420487       -5.6210528412395009                0           0           0
         100           1   1.2526790000000001        3.4002860580400736        1.2331676177722342       -5.3630888982659419                0           0           0
         101           1   1.3715560000000000        4.6945546081792138        1.9435177120681635       -5.2149860947147921                0           0           0
         102           1   1.1018300000000001       -5.2707831768118991        2.9234653878085588       -4.6578736598788630                0           0           0
         103           1   1.0932630000000001       -3.5675173614054243        2.4632821693845965       -5.3440482631573865                0           0           0
         104           1  0.91189900000000002       -4.1211378051643726        2.8847287924275893       -4.5133425401858922                0           0           0
         105           1  0.73728300000000002       -2.6122127511655044        2.6409187772943010       -5.2594320405517889                0           0           0
         106           1  0.79696199999999995       -3.3084253596420550        3.4058818279567458       -5.2521752673376980                0           0           0
         107           1   1.2884510000000000       -1.6763046233137482        2.9544115708664869       -4.9475341546889400                0           0           0
         108           1  0.90628100000000000      -0.72746148251227272        2.3965936766561899       -4.7448135545896246                0           0           0
         109           1   1.2439519999999999      -0.38510952394736808        3.3547809682497345       -5.2013763034074971                0           0           0
         110           1  0.85372000000000003      -0.78196166066914596        2.4256909052816127       -5.7209060133801337                0           0           0
         111           1  0.79320299999999999       0.61328625148932936        3.3019465619088102       -5.5987167120833812                0           0           0
         112           1  0.83657099999999995        1.1748360861925633        2.4699953679789353       -4.6479148415800298                0           0           0
         113           1  0.79898800000000003        2.9606005294031270        3.1900710679834354       -4.7848538893116528                0           0           0
         114           1  0.97961900000000002        3.5958216178151954        2.3812452865391958       -4.7877865678063305                0           0           0
         115           1  0.80490099999999998        4.3399266732068025        2.9622093912105143       -5.0318680943350840                0           0           0
         116           1  0.76785300000000001        5.2762122455924274        2.8442181187743341       -5.1952248448369085                0           0           0
         117           1  0.78729899999999997       -4.9518839908013668        4.4951164528527006       -5.4860194917659451                0           0           0
         118           1  0.86933700000000003       -5.5481505765105332        3.5911736849144607       -5.4413500480244510                0           0           0
         119           1   1.4795579999999999       -4.3747458693300203        3.5621968332787652       -5.4165674783432962                0           0           0
         120           1   1.1486650000000000       -3.1844750061588076        4.3848506875841071       -5.0836045480574539                0           0           0
         121           1  0.75789499999999999       -2.3890992865457235        3.7445136890558253       -4.9457916872709582                0           0           0
         122           1  0.80026200000000003       -2.3213736757763126        4.4451051792048784       -5.6142028816823073                0           0           0
         123           1  0.84546600000000005       -1.5270532757564146        3.9559489946562465       -5.5384974908445379                0           0           0
         124           1  0.74727200000000005       -1.2033132987198503        3.8593882651259310       -4.6781662427746298                0           0           0
         125           1   1.1842509999999999       -1.9087193003458092        4.6028952367614213       -4.6945242101422462                0           0           0
         126           1   1.0372950000000001      -0.65495397795635579        4.5103589797417367       -5.4109069714734375                0           0           0
         127           1  0.75573400000000002       0.26177226335153403        4.1576834577040902       -5.1431642200879786                0           0           0
         128           1  0.90554000000000001        1.2415836309025554        4.0840452060653458       -5.6176699379065758                0           0           0
         129           1  0.73019400000000001        1.8121667858460162        4.2127365458754173       -4.6935413995724824                0           0           0
         130           1   1.1501790000000001        2.1525300307263411        3.5477014342007873       -5.3274066349985159                0           0           0
         131           1   1.0361840000000000        3.0270569844650286        4.2490301657077456       -5.0768438259590631                0           0           0
         132           1  0.78415599999999996        3.9321926655314847        3.9071688989852227       -5.1482825594535537                0           0           0
         133           1  0.84128000000000003        4.6850239667062326        4.1810207220465632       -4.6294330391292666                0           0           0
         134           1   1.3047489999999999        4.8111959728534579        3.6873006820146585       -5.6347320921961659                0           0           0
         135           1  0.87163800000000002       -5.3644005721141781        5.3254160357491180       -5.1927394761022541                0           0           0
         136           1   1.1479109999999999       -4.3643910403523316        4.7511489562057516       -4.6929299375372500                0           0           0
         137           1  0.85967499999999997       -3.6130726140756972        5.3537791947758695       -5.0960931025186689                0           0           0
         138           1  0.80051799999999995       -4.4907121187873971        5.3889268245249298       -5.5102487594200262                0           0           0
         139           1   1.1004989999999999       -2.5978223374814435        5.4372152344071640       -5.4127923194463392                0           0           0
         140           1  0.95438500000000004       -1.5520191498222600        5.6720652034115808       -5.1923996717271681                0           0           0
         141           1  0.98720399999999997      -0.33287748227205505        5.6307757973615669       -5.5523591244162445                0           0           0
         142           1  0.86126300000000000       0.22625206929600417        5.0126940828755000       -4.8422354678261987                0           0           0
         143           1  0.79245800000000000        1.0919407273695096        4.6982068481530774       -4.7988073159455773                0           0           0
         144           1   1.2686580000000001        1.9933953792275982        4.9420018011017497       -5.3293474080766376                0           0           0
         145           1  0.86478800000000000        2.9193564426660483        5.2691562368073175       -4.8620874916348642                0           0           0
         146           1  0.73688299999999995        3.1265300600615458        5.0164910309457174       -5.7098509912896507                0           0           0
         147           1   1.4304490000000001        3.9929743153482686        4.9939944616203480       -4.9128632640440992                0           0           0
         148           1  0.76117100000000004        5.1022936901569924        5.0300280468244587       -5.0205860840963927                0           0           0
         149           1  0.81904200000000005        4.6150473716010669        4.8797006956787943        5.6745849946385256                0           0           0
         150           1  0.74355499999999997       -5.1792009029456549       -5.2300981704445295       -3.7814996263667040                0           0           0
         151           1  0.76271500000000003       -3.8960844994736989       -5.0047866426180470       -3.9556550877505900                0           0           0
         152           1  0.76898400000000000       -2.4467831087569190       -4.7732569696427598       -4.0557195923041514                0           0           0
         153           1   1.0236600000000000       -3.1888731906866048       -5.5592994107690297       -3.5148001099727497                0           0           0
         154           1  0.73077700000000001       -1.4918565435657580       -4.9066928192751673       -3.7595817098863056                0           0           0
         155           1   1.1202880000000000       -2.0140291224528770       -5.6673882035741192       -4.1836657054823778                0           0           0
         156           1  0.76807899999999996       -1.1699814858458639       -5.1570917341175262       -4.4926175598534090                0           0           0
         157           1   1.3321630000000000      -0.46878971723984098       -4.9659754254209520       -3.6775048392325220                0           0           0
         158           1  0.80179999999999996       0.67126680752693613       -4.9370643438010626       -3.9330631249048205                0           0           0
         159           1  0.94373200000000002        1.6250608388289409       -5.0659015155127802       -4.0327740548432995                0           0           0
         160           1  0.95481799999999994        3.1756864610115123       -4.6763260433649982       -4.5081198244198308                0           0           0
         161           1   1.4699640000000000        2.7723723644729930       -5.6468350795779365       -3.8599343770604833                0           0           0
         162           1   1.3309860000000000        4.2488381381414850       -5.0903629235852268       -4.0893457688332004                0           0           0
         163           1   1.1672389999999999        5.5678722394192839       -5.5020750159131415       -4.4553929611911069                0           0           0
         164           1  0.96901499999999996       -5.4419047306019044       -4.4021868865104796       -4.4197287430623886                0           0           0
         165           1   1.1382319999999999       -4.6422736690440924       -4.3891822919769332       -3.6100417491614016                0           0           0
         166           1   1.0295930000000000       -5.6942548934687842       -3.7207329786517787       -3.5824942606162948                0           0           0
         167           1  0.75638000000000005       -4.0899487308203888       -3.5656473104085880       -3.8329901226170886                0           0           0
         168           1   1.4976440000000000       -3.2454514413016411       -4.2024135347634637       -3.6134164785461480                0           0           0
         169           1   1.3677140000000001       -1.7361892659505100       -4.0027107893542064       -4.2369687451385447                0           0           0
         170           1  0.87362600000000001      -0.74575692112402425       -3.9598233114137309       -4.7357325085551532                0           0           0
         171           1  0.77448300000000003      -0.48507164376122791       -3.9216382965046499       -3.6431871120675900                0           0           0
         172           1   1.1426689999999999       0.20226706427005325       -4.1795487304351724       -4.4319084338696682                0           0           0
         173           1   1.6053649999999999        1.3748144017250770       -3.8478143034312993       -3.7823462779170969                0           0           0
         174           1  0.81254700000000002        2.3836469676574783       -4.4086721024586968       -4.0219253137643722                0           0           0
         175           1   1.5251770000000000        2.8582484722562445       -3.4519628141366421       -4.4889014707341026                0           0           0
         176           1  0.90739599999999998        3.8967135532699437       -3.9369932469086439       -4.1714395220558815                0           0           0
         177           1  0.91723800000000000        3.4619085066288413       -3.3072845287224775       -3.4520813637711143                0           0           0
         178           1  0.98055700000000001        4.9346406976598729       -4.1353725869427906       -4.2290244450019117                0           0           0
         179           1   1.4378010000000001       -4.9222593350046813       -3.2639013571476738       -4.4092977709345416                0           0           0