LAMMPS data file via write_data, version 17 Nov 2016, timestep = 0
      
  1500 atoms
      
1 atom types
  -5.7235712129999996        5.7235712129999996      xlo xhi
  -5.7235712129999996        5.7235712129999996      ylo yhi
  -5.7235712129999996        5.7235712129999996      zlo zhi
Masses
      
1 1
      
Pair Coeffs # lj/poly
      
                               1 1.0 1.0 2.025 1.25 0.2
      
Atoms # charge
      
           1           1  0.82965299999999997       -5.5469007787647389       -4.8804547554603586       -5.2644793367330918                0           0           0
           2           1   1.5413479999999999       -4.5777173597919338       -5.2708967555441575       -4.7544375744298879                0           0           0
           3           1  0.86062700000000003       -3.7992807333660399       -4.7689180136633009       -5.4877040208837613                0           0           0
           4           1   1.2325940000000000       -3.1708718720379823       -5.2166751896947012       -4.6517010974638318                0           0           0
           5           1  0.92110899999999996       -2.0804738337994242       -4.9013283027076877       -4.9086985573803306                0           0           0
           6           1   1.5043869999999999       -1.0403020115320576       -4.7537892556018448       -5.4722134805509937                0           0           0
           7           1  0.88103100000000001      -0.20401897732560581       -5.1732025817456018       -4.7417150900231553                0           0           0
           8           1  0.92227999999999999       0.28240662804593519       -4.6683315881745644       -5.4689126667675234                0           0           0
           9           1   1.5129459999999999       0.93288429089638658       -5.5207411109877125       -4.9776028543306090                0           0           0
          10           1  0.87097899999999995        2.1141722718609097       -5.5819541949278850       -4.7735055413772720                0           0           0
          11           1  0.82823300000000000        1.9350324263452450       -5.3974690741500311       -5.6975206995007044                0           0           0
          12           1   1.3333429999999999        3.0292721271944956       -5.3291872542121554       -5.5325903325778825                0           0           0
          13           1  0.81986499999999995        4.1207282719264722       -5.3088607334210041       -5.3204563712711703                0           0           0
          14           1  0.74748000000000003        3.5229584740865789       -5.5424177968192732       -4.6445641525321042                0           0           0
          15           1  0.86770400000000003        4.9128406589580536       -4.8169736396509819       -4.9823337991962067                0           0           0
          16           1  0.73948999999999998        4.6897155188247730       -5.6958239055196787       -4.7972301265486905                0           0           0
          17           1   1.1174949999999999       -4.8041781850683156       -4.1459815060012009       -5.5134246263859499                0           0           0
          18           1   1.0167780000000000       -4.0021770165023929       -4.1406396101531602       -4.6425097893006511                0           0           0
          19           1   1.0699300000000000       -2.8283881228717749       -4.0579360284767789       -4.8333393254040748                0           0           0
          20           1  0.76943799999999996       -1.9508052299884375       -4.0825913363879813       -5.3119544244181194                0           0           0
          21           1   1.0829869999999999      -0.25528398819350961       -3.7676677617834269       -5.6913745202730333                0           0           0
          22           1   1.3859269999999999       0.96561081277577987       -3.6924383763508155       -5.3559128428882010                0           0           0
          23           1  0.77240699999999995        1.1011973257302028       -4.5056121797407513       -4.6428492168734552                0           0           0
          24           1   1.1917739999999999        2.0288816355967771       -4.5417462345839716       -5.0006823740359252                0           0           0
          25           1  0.76583000000000001        1.8055126760105829       -3.5411196587892388       -4.7332313168964264                0           0           0
          26           1  0.97774899999999998        2.1589554982526389       -3.5663544436019370       -5.6186211219937476                0           0           0
          27           1  0.83108000000000004        2.9282935939349795       -4.1991990797558998       -5.3769886810976359                0           0           0
          28           1   1.2215430000000000        3.9776107448675670       -4.2769661191505808       -5.2395524530768585                0           0           0
          29           1   1.3806490000000000        5.3922817958887492       -3.8327267518943682       -5.3251888984583049                0           0           0
          30           1   1.0400879999999999       -5.1886006295419564       -2.9448210581709318       -5.6115037626539790                0           0           0
          31           1  0.77126099999999997       -4.2970893030229327       -3.2816259033342554       -5.2693526653611782                0           0           0
          32           1  0.92384800000000000       -4.2739235748211239       -2.3886363751697921       -4.9295704476971531                0           0           0
          33           1  0.88862900000000000       -2.3172022064223228       -3.1290254386198812       -4.8783464874439399                0           0           0
          34           1  0.86158199999999996       -3.0721872573486402       -2.8334493171893040       -5.5295959806889226                0           0           0
          35           1   1.1209890000000000       -1.3322006125571821       -3.3134994707277663       -5.3218905362828215                0           0           0
          36           1   1.2420370000000001      -0.20732353450880669       -2.9465056150581885       -4.7334770772994501                0           0           0
          37           1  0.88274100000000000       -1.0379900315547070       -2.3146915301598718       -5.1640588004192152                0           0           0
          38           1   1.0668899999999999       0.69936964253110290       -2.4523380862452679       -5.4166391021076787                0           0           0
          39           1   1.1892499999999999        1.8744051780227826       -2.5807050127382243       -5.0905629463097641                0           0           0
          40           1  0.78319600000000000        2.8301624836875270       -2.8158697124721042       -5.3692366358695143                0           0           0
          41           1  0.77194799999999997        2.7242904647312294       -2.3001093097359258       -4.5368942506028267                0           0           0
          42           1  0.74873199999999995        3.6636838838598553       -3.3053743738665387       -5.1920785108361240                0           0           0
          43           1   1.0263439999999999        4.5033189194602521       -3.2522446592094156       -4.7622794267380915                0           0           0
          44           1  0.81308199999999997        4.5356622453911140       -2.5168988081493922       -5.4257328577875503                0           0           0
          45           1   1.1161060000000000        3.6525720333895464       -2.3561704283631393       -4.9578408078254768                0           0           0
          46           1   1.2125560000000000        5.4069662442462647       -2.4195966014064147       -4.8846104350292769                0           0           0
          47           1  0.74192100000000005       -4.9832021164626070       -2.0369776421954588       -5.3620030970374248                0           0           0
          48           1  0.91800800000000005       -4.1450680043578414       -1.5512450956977402       -5.5026655372345035                0           0           0
          49           1  0.83222700000000005       -3.2311305300157165       -1.9448747524777290       -5.2776285217279115                0           0           0
          50           1   1.0095200000000000       -2.5261952033270387       -1.2183424611955607       -4.8845107964163690                0           0           0
          51           1   1.4893410000000000       -2.1369799998768482       -2.1865582307526519       -5.5799750026029757                0           0           0
          52           1   1.2179240000000000       -1.3375511678979555       -1.3150463284470382       -4.7725293862145044                0           0           0
          53           1   1.0644769999999999      -0.21540484645477687       -1.6507425942103273       -5.2242786837260597                0           0           0
          54           1   1.3780330000000001       0.97060786898442952       -1.2767731834746412       -5.0285748228146545                0           0           0
          55           1   1.0451729999999999        2.1545789775846487       -1.4325292392705462       -4.8219597089014918                0           0           0
          56           1  0.79520100000000005        3.6440229766753021       -1.3690542661860441       -5.2507458957441280                0           0           0
          57           1   1.0204660000000001        4.4555240646891239       -1.5654300827225391       -4.6065677902849034                0           0           0
          58           1  0.80856499999999998        5.3526701970868515       -1.3725597657177282       -5.0231634070961713                0           0           0
          59           1   1.3538969999999999       -5.0488017424134233       -1.0672229899542058       -4.9822224038583052                0           0           0
          60           1  0.75854699999999997       -4.0575138869796756      -0.67609178386716895       -5.1866134365806342                0           0           0
          61           1  0.73175199999999996       -2.4330148209347771      -0.42721013587959167       -5.3679061659214744                0           0           0
          62           1   1.0328729999999999       -3.2225387110014267      -0.31614738553390165       -4.8602170329867302                0           0           0
          63           1  0.75083299999999997       -1.6052859901490244      -0.29426174271804051       -5.2686573106127987                0           0           0
          64           1  0.82179500000000005       -1.8885813507685159       -1.0727466952945974       -5.6615586008368490                0           0           0
          65           1  0.90665300000000004      -9.01808333288123265E-003 -0.65440838873022678       -4.8694318117953808                0           0           0
          66           1  0.88653700000000002      -0.93543210011850153      -0.29877783017691772       -4.6184888031072573                0           0           0
          67           1   1.1960150000000001       0.61570347171723228      -5.80611300207563019E-002  -5.5089024740291492                0           0           0
          68           1   1.0855290000000000        1.7621558249211509      -0.25981815833350108       -4.9771556037758256                0           0           0
          69           1  0.97821599999999997        2.8746701572008782      -0.73833399707649239       -5.2574937034629015                0           0           0
          70           1   1.4363210000000000        3.8761643977359999      -0.46573963677683050       -4.6844294506366166                0           0           0
          71           1   1.1656560000000000        5.2191538527295833      -0.35645449352303160       -4.9032946509267274                0           0           0
          72           1   1.0241950000000000       -5.1429625645886468       6.03080787971705945E-002  -5.4475508888746820                0           0           0
          73           1  0.83424600000000004       -4.6115972483034708       0.76659732138206227       -4.9657227558799226                0           0           0
          74           1   1.2242780000000000       -5.7182326842663738       0.90298851618099185       -4.8381661160454730                0           0           0
          75           1   1.2615920000000000       -3.9365643881527035       0.26681778433774106       -5.6890450071683647                0           0           0
          76           1  0.96946900000000003       -2.7367443917545140       0.42715641729861176       -5.5140301818909681                0           0           0
          77           1   1.0105480000000000       -3.3840786878901952       0.86122280892789504       -4.7512058981944492                0           0           0
          78           1   1.1696240000000000       -1.6397303077207308       0.71758270671071767       -5.3725227625422276                0           0           0
          79           1  0.91265600000000002       -2.3022690545808220        1.0197902039131916       -4.5787129646498164                0           0           0
          80           1  0.77751099999999995      -0.66753940304940418       0.45524758208765270       -5.3567169050043928                0           0           0
          81           1  0.88239800000000002       0.43415148732620423        1.0346167742668513       -5.3368286912814593                0           0           0
          82           1  0.79924200000000001        1.0787009460275430       0.44404207852514688       -4.6724216116229638                0           0           0
          83           1   1.1011640000000000        1.4550239674012824       0.81740085410441932       -5.6071465993116885                0           0           0
          84           1   1.4763390000000001        2.1769738393446501       0.88624315458010017       -4.5382428934504002                0           0           0
          85           1  0.85063500000000003        2.9570828009385348       0.18588042295254059       -4.8873175834636626                0           0           0
          86           1  0.83979999999999999        3.6438405833687195       0.20893974202341870       -5.5428602854161353                0           0           0
          87           1   1.1119710000000000        4.4784519833742795       0.66294021968249428       -5.0016440635152462                0           0           0
          88           1  0.92940100000000003       -5.4555405515265294        1.9593292328833174       -5.1008072818045527                0           0           0
          89           1  0.98624599999999996       -4.6150687501307832        2.3581824751848721       -5.6279044421977060                0           0           0
          90           1  0.88377099999999997       -3.8563669269510434        1.4270539387319694       -5.5097183138316481                0           0           0
          91           1   1.4289920000000000       -4.4188527748265898        1.7669174708145645       -4.5665656976250713                0           0           0
          92           1   1.2863240000000000       -2.6716312737835652        1.6184431337980003       -5.4864431634043225                0           0           0
          93           1  0.83280200000000004       -3.2641829434603076        1.8648748138436737       -4.5869585617621844                0           0           0
          94           1  0.91532000000000002       -1.5864577729972202        1.8521810571453576       -5.2051415778950840                0           0           0
          95           1   1.0549850000000001      -0.61665928483117671        1.4260145834912645       -5.3292868176906909                0           0           0
          96           1   1.4844250000000001       0.40709009078143588        2.1876712726206549       -5.4383801969626315                0           0           0
          97           1  0.86414400000000002        1.4767123002922435        1.8101035648657682       -5.3064751862857955                0           0           0
          98           1   1.3125690000000001        2.4433028593545334        2.2791803606538661       -5.1471646185165820                0           0           0
          99           1  0.82318199999999997        2.3812982445866453        1.2545842285865225       -5.6231547285081316                0           0           0
         100           1   1.2526790000000001        3.4010787050232594        1.2314115397396490       -5.3641853871535616                0           0           0
         101           1   1.3715560000000000        4.6944234827736508        1.9435420096517513       -5.2159720641098142                0           0           0
         102           1   1.1018300000000001       -5.2702347341088513        2.9223673087672282       -4.6595844510755029                0           0           0
         103           1   1.0932630000000001       -3.5674926423020379        2.4637207035668922       -5.3429559413261947                0           0           0
         104           1  0.91189900000000002       -4.1199400245138147        2.8853722424812975       -4.5123012284518706                0           0           0
         105           1  0.73728300000000002       -2.6129531356351468        2.6428353379783527       -5.2587514302624783                0           0           0
         106           1  0.79696199999999995       -3.3067531275181641        3.4062443933994349       -5.2495376699076175                0           0           0
         107           1   1.2884510000000000       -1.6773563377210685        2.9545620937003285       -4.9462409764706070                0           0           0
         108           1  0.90628100000000000      -0.72823319896322669        2.3958091769417376       -4.7449075002706369                0           0           0
         109           1   1.2439519999999999      -0.38545611245444089        3.3540573241487994       -5.2013933537663721                0           0           0
         110           1  0.85372000000000003      -0.78031571298195512        2.4251668995473068       -5.7211943434651920                0           0           0
         111           1  0.79320299999999999       0.61332778131886201        3.3011042696525568       -5.5999402516817085                0           0           0
         112           1  0.83657099999999995        1.1749432272309388        2.4689575157967596       -4.6490378295238433                0           0           0
         113           1  0.79898800000000003        2.9612673159447009        3.1890573371562709       -4.7863946504880683                0           0           0
         114           1  0.97961900000000002        3.5961576881447304        2.3813720873803756       -4.7892584051235669                0           0           0
         115           1  0.80490099999999998        4.3404390306322149        2.9622342202960361       -5.0324752567975599                0           0           0
         116           1  0.76785300000000001        5.2762130296157377        2.8439351017098424       -5.1959915027964714                0           0           0
         117           1  0.78729899999999997       -4.9519041863509132        4.4959078749490597       -5.4860536379783618                0           0           0
         118           1  0.86933700000000003       -5.5478707325636147        3.5911226361473201       -5.4414597169300514                0           0           0
         119           1   1.4795579999999999       -4.3737803148601149        3.5628846431578847       -5.4157751783569026                0           0           0
         120           1   1.1486650000000000       -3.1850718070451478        4.3859208861745245       -5.0821125965193472                0           0           0
         121           1  0.75789499999999999       -2.3915392959606461        3.7436450924766778       -4.9434710760954585                0           0           0
         122           1  0.80026200000000003       -2.3222320732301398        4.4460666675885268       -5.6128466481810317                0           0           0
         123           1  0.84546600000000005       -1.5284885616618995        3.9557129990887763       -5.5379625033415589                0           0           0
         124           1  0.74727200000000005       -1.2043935546765265        3.8589531698309152       -4.6775447487593231                0           0           0
         125           1   1.1842509999999999       -1.9097311849604290        4.6025652976605400       -4.6931988625773133                0           0           0
         126           1   1.0372950000000001      -0.65654523169768275        4.5097900397989754       -5.4101509311623364                0           0           0
         127           1  0.75573400000000002       0.26040603093051029        4.1577256533475477       -5.1424215544577558                0           0           0
         128           1  0.90554000000000001        1.2416239219852256        4.0836238715674913       -5.6186248874113103                0           0           0
         129           1  0.73019400000000001        1.8120100465367814        4.2109486414183994       -4.6968146821211141                0           0           0
         130           1   1.1501790000000001        2.1527331403124492        3.5461286156224379       -5.3293837998465747                0           0           0
         131           1   1.0361840000000000        3.0265948800284956        4.2482868396300617       -5.0784270224283379                0           0           0
         132           1  0.78415599999999996        3.9319902204103609        3.9065601789996620       -5.1488907365920626                0           0           0
         133           1  0.84128000000000003        4.6851663304740274        4.1806912485926340       -4.6296818180510586                0           0           0
         134           1   1.3047489999999999        4.8114315454766441        3.6875135261631318       -5.6350108149163294                0           0           0
         135           1  0.87163800000000002       -5.3662735279152409        5.3271156723315016       -5.1919991986917875                0           0           0
         136           1   1.1479109999999999       -4.3650811068881357        4.7527778304587969       -4.6929674361781135                0           0           0
         137           1  0.85967499999999997       -3.6135044113401413        5.3547845885624845       -5.0957707884516976                0           0           0
         138           1  0.80051799999999995       -4.4922417591477490        5.3890210135026404       -5.5103175217604381                0           0           0
         139           1   1.1004989999999999       -2.5984061272568351        5.4386779858593854       -5.4113058494850765                0           0           0
         140           1  0.95438500000000004       -1.5523797867248899        5.6724569253749753       -5.1915114052438316                0           0           0
         141           1  0.98720399999999997      -0.33550558028016209        5.6304754704740620       -5.5526726464154326                0           0           0
         142           1  0.86126300000000000       0.22567851391747862        5.0132704498949305       -4.8427699343112280                0           0           0
         143           1  0.79245800000000000        1.0915358472726151        4.6975242595721607       -4.7994085821976613                0           0           0
         144           1   1.2686580000000001        1.9929774848143245        4.9420297339119159       -5.3308089866775639                0           0           0
         145           1  0.86478800000000000        2.9187619077831801        5.2676175060617840       -4.8609781754005068                0           0           0
         146           1  0.73688299999999995        3.1230949932322876        5.0159944861310350       -5.7102725121440434                0           0           0
         147           1   1.4304490000000001        3.9925290312968293        4.9932415237173888       -4.9125846443822443                0           0           0
         148           1  0.76117100000000004        5.1018681562057751        5.0299714027085116       -5.0208096298307998                0           0           0
         149           1  0.81904200000000005        4.6145373689605904        4.8784700926302929        5.6747312462265089                0           0           0
         150           1  0.74355499999999997       -5.1781772327915405       -5.2286802512505588       -3.7842357269547486                0           0           0
         151           1  0.76271500000000003       -3.8969375955332803       -5.0039324766812134       -3.9543466392953643                0           0           0
         152           1  0.76898400000000000       -2.4475832138556246       -4.7727332306813066       -4.0542864729982684                0           0           0
         153           1   1.0236600000000000       -3.1890271320898878       -5.5597573805799776       -3.5135464243613570                0           0           0
         154           1  0.73077700000000001       -1.4922533935915929       -4.9066588637493451       -3.7588716001973843                0           0           0
         155           1   1.1202880000000000       -2.0151165725186635       -5.6674351532314100       -4.1830038893418209                0           0           0
         156           1  0.76807899999999996       -1.1703776167539104       -5.1574583437166766       -4.4916366535384915                0           0           0
         157           1   1.3321630000000000      -0.46923825741376213       -4.9660892386948881       -3.6763557412072450                0           0           0
         158           1  0.80179999999999996       0.67108830127657715       -4.9367607416080954       -3.9320808292974361                0           0           0
         159           1  0.94373200000000002        1.6249070797464773       -5.0666853384905099       -4.0305391425383919                0           0           0
         160           1  0.95481799999999994        3.1721457358622036       -4.6786028884694435       -4.5093260790724665                0           0           0
         161           1   1.4699640000000000        2.7719461092667945       -5.6461197890403749       -3.8593151167723869                0           0           0
         162           1   1.3309860000000000        4.2473960058871985       -5.0927223891455862       -4.0889191709850206                0           0           0
         163           1   1.1672389999999999        5.5655849931743955       -5.4975832351494285       -4.4555892294741106                0           0           0
         164           1  0.96901499999999996       -5.4361833981071621       -4.3996855255234415       -4.4213526754047692                0           0           0
         165           1   1.1382319999999999       -4.6425013112533229       -4.3880632266316777       -3.6076197831600849                0           0           0
         166           1   1.0295930000000000       -5.6912958427697653       -3.7214408429375436       -3.5817199513326043                0           0           0
         167           1  0.75638000000000005       -4.0948019725245421       -3.5641038319724401       -3.8326519891627413                0           0           0
         168           1   1.4976440000000000       -3.2465322858282488       -4.2015690055602626       -3.6116227289180141                0           0           0
         169           1   1.3677140000000001       -1.7367569692856595       -4.0025704349726805       -4.2356887501748464                0           0           0
         170           1  0.87362600000000001      -0.74634481223837845       -3.9590836116772317       -4.7345024630263843                0           0           0
         171           1  0.77448300000000003      -0.48540582749198258       -3.9214985216107840       -3.6420356703284047                0           0           0
         172           1   1.1426689999999999       0.20137253665044152       -4.1797186253300316       -4.4306977687136353                0           0           0
         173           1   1.6053649999999999        1.3752464401822317       -3.8486887197819106       -3.7814325586601343                0           0           0
         174           1  0.81254700000000002        2.3831577530834807       -4.4094875540073009       -4.0206015330531510                0           0           0
         175           1   1.5251770000000000        2.8620284779575229       -3.4532775043864410       -4.4878528473339072                0           0           0
         176           1  0.90739599999999998        3.8957297177262245       -3.9456022773217811       -4.1704194247000554                0           0           0
         177           1  0.91723800000000000        3.4665544364692114       -3.3079858546806729       -3.4528329547638985                0           0           0
         178           1  0.98055700000000001        4.9397496581634783       -4.1450746001092851       -4.2248526516480354                0           0           0
         179           1   1.4378010000000001       -4.9285505582191913       -3.2555500595080780       -4.4086449622978252                0           0           0