LAMMPS data file via write_data, version 17 Nov 2016, timestep = 0
      
  1500 atoms
      
1 atom types
  -5.7235712129999996        5.7235712129999996      xlo xhi
  -5.7235712129999996        5.7235712129999996      ylo yhi
  -5.7235712129999996        5.7235712129999996      zlo zhi
Masses
      
1 1
      
Pair Coeffs # lj/poly
      
                               1 1.0 1.0 2.025 1.25 0.2
      
Atoms # charge
      
           1           1  0.82965299999999997       -5.5511966425450892       -4.8779016891459772       -5.2658486335637216                0           0           0
           2           1   1.5413479999999999       -4.5881732417816394       -5.2698000314290629       -4.7553733333049939                0           0           0
           3           1  0.86062700000000003       -3.8166814745285498       -4.7636665541845087       -5.4961861050375438                0           0           0
           4           1   1.2325940000000000       -3.1905251041528717       -5.2224444499665355       -4.6680716758327350                0           0           0
           5           1  0.92110899999999996       -2.0935952022219126       -4.8968946815084227       -4.9000836978641766                0           0           0
           6           1   1.5043869999999999       -1.0411027777212469       -4.7244510232686316       -5.4642417471412417                0           0           0
           7           1  0.88103100000000001      -0.19833484505045273       -5.1611782716775583       -4.7438906736359021                0           0           0
           8           1  0.92227999999999999       0.29894959599817650       -4.6656581555207399       -5.4709089073254438                0           0           0
           9           1   1.5129459999999999       0.93776644407993004       -5.5240521630791548       -4.9831536634721880                0           0           0
          10           1  0.87097899999999995        2.1158604494635096       -5.5798803044417093       -4.7753509361600521                0           0           0
          11           1  0.82823300000000000        1.9373660650700382       -5.3937623334258085       -5.6992453599150714                0           0           0
          12           1   1.3333429999999999        3.0318238745705166       -5.3246795508880149       -5.5331585013718971                0           0           0
          13           1  0.81986499999999995        4.1232826174208075       -5.3034806424087044       -5.3245586678227808                0           0           0
          14           1  0.74748000000000003        3.5259113547284766       -5.5412309661577090       -4.6469610801624652                0           0           0
          15           1  0.86770400000000003        4.9175037347742236       -4.8164803618561720       -4.9818122647184557                0           0           0
          16           1  0.73948999999999998        4.6870986080742707       -5.6948217894156041       -4.7996658596383330                0           0           0
          17           1   1.1174949999999999       -4.8093544128240486       -4.1494026647593811       -5.5305264463002404                0           0           0
          18           1   1.0167780000000000       -4.0243703204402461       -4.1337107980244214       -4.6492608982593806                0           0           0
          19           1   1.0699300000000000       -2.8707142442428379       -4.0598187666285144       -4.8552436522226099                0           0           0
          20           1  0.76943799999999996       -1.9729989704188733       -4.0830791653161285       -5.3013688877019201                0           0           0
          21           1   1.0829869999999999      -0.23594769915226621       -3.7586998392084707       -5.6621523774645128                0           0           0
          22           1   1.3859269999999999       0.98284958740065864       -3.6827755826329791       -5.3618660370340061                0           0           0
          23           1  0.77240699999999995        1.0867513170371126       -4.5018347536480183       -4.6554304985364681                0           0           0
          24           1   1.1917739999999999        2.0266310330685808       -4.5391879640840145       -5.0018599524613920                0           0           0
          25           1  0.76583000000000001        1.8126223118976217       -3.5363900084980049       -4.7343432178654332                0           0           0
          26           1  0.97774899999999998        2.1674370136891197       -3.5628424846813131       -5.6206144304257952                0           0           0
          27           1  0.83108000000000004        2.9328617507571710       -4.2002916294224928       -5.3767940672651369                0           0           0
          28           1   1.2215430000000000        3.9870217180331053       -4.2719392533307285       -5.2344973447162335                0           0           0
          29           1   1.3806490000000000        5.3868842606877863       -3.8287403067792471       -5.3283987325000757                0           0           0
          30           1   1.0400879999999999       -5.1716115188744061       -2.9690639940077532       -5.6309765830804990                0           0           0
          31           1  0.77126099999999997       -4.2910775198778088       -3.2876862112992318       -5.2666334158147095                0           0           0
          32           1  0.92384800000000000       -4.2964904265765993       -2.3869631222352412       -4.9385959329027198                0           0           0
          33           1  0.88862900000000000       -2.3248521921589518       -3.1378027415946432       -4.8731587605293223                0           0           0
          34           1  0.86158199999999996       -3.0711682654405901       -2.8384206614269822       -5.5405616781938773                0           0           0
          35           1   1.1209890000000000       -1.3089273876993994       -3.3594340809217940       -5.2640475178170032                0           0           0
          36           1   1.2420370000000001      -0.20272957829168448       -2.9259919393517664       -4.7200434765319486                0           0           0
          37           1  0.88274100000000000       -1.0405615442661826       -2.3307109214092807       -5.1668514715401210                0           0           0
          38           1   1.0668899999999999       0.70347682620908714       -2.4476955956645843       -5.4147605270073775                0           0           0
          39           1   1.1892499999999999        1.8748747699333430       -2.5762213888388019       -5.0891257756153534                0           0           0
          40           1  0.78319600000000000        2.8214955734694840       -2.8160151623079042       -5.3747764172140275                0           0           0
          41           1  0.77194799999999997        2.7239622951884055       -2.2999053951049575       -4.5330647857442408                0           0           0
          42           1  0.74873199999999995        3.6770710686486279       -3.3135499014839724       -5.1806355414049126                0           0           0
          43           1   1.0263439999999999        4.5187254663647014       -3.2094945814006679       -4.7488475070991205                0           0           0
          44           1  0.81308199999999997        4.5544347364228219       -2.4919743622499921       -5.4191191669807450                0           0           0
          45           1   1.1161060000000000        3.6437727222669345       -2.3669880730342157       -4.9674244187800509                0           0           0
          46           1   1.2125560000000000        5.4653971938291832       -2.4234820983023031       -4.9162317866477814                0           0           0
          47           1  0.74192100000000005       -5.0451125272649957       -2.0640973010081551       -5.3297176337449805                0           0           0
          48           1  0.91800800000000005       -4.1421142135113831       -1.5517843905098729       -5.5023991479021976                0           0           0
          49           1  0.83222700000000005       -3.2276882224941379       -1.9515636785880748       -5.2753781250201346                0           0           0
          50           1   1.0095200000000000       -2.5293021475852933       -1.2239042743411188       -4.8865380541055101                0           0           0
          51           1   1.4893410000000000       -2.1335602135845559       -2.1947164424767007       -5.5785948465201587                0           0           0
          52           1   1.2179240000000000       -1.3413490448375089       -1.3230479192921285       -4.7689267465086393                0           0           0
          53           1   1.0644769999999999      -0.21711803444557720       -1.6539165398910951       -5.2156930339595622                0           0           0
          54           1   1.3780330000000001       0.97082403830826181       -1.2740888139885751       -5.0274972654028165                0           0           0
          55           1   1.0451729999999999        2.1546893001648471       -1.4297347155106728       -4.8220322001803950                0           0           0
          56           1  0.79520100000000005        3.6403124511069791       -1.3749457200603388       -5.2478315485164888                0           0           0
          57           1   1.0204660000000001        4.4305917119873151       -1.5933953286023721       -4.6002830749581172                0           0           0
          58           1  0.80856499999999998        5.3340092130212824       -1.3801910490003442       -5.0189696938093675                0           0           0
          59           1   1.3538969999999999       -5.0573867180951710       -1.0781633051398281       -4.9879852517811107                0           0           0
          60           1  0.75854699999999997       -4.0631013454729352      -0.67889623539399935       -5.1849679803559461                0           0           0
          61           1  0.73175199999999996       -2.4346580269457165      -0.43175875608551895       -5.3669761303189834                0           0           0
          62           1   1.0328729999999999       -3.2259761329584484      -0.32160747035088377       -4.8590300952360783                0           0           0
          63           1  0.75083299999999997       -1.6072811368362352      -0.29678783875350412       -5.2687379102910414                0           0           0
          64           1  0.82179500000000005       -1.8881655451974502       -1.0780185846277970       -5.6601129376684378                0           0           0
          65           1  0.90665300000000004      -9.55684041968130060E-003 -0.65525842538878543       -4.8665379153183137                0           0           0
          66           1  0.88653700000000002      -0.93785882972079904      -0.30275187748722132       -4.6175792101877571                0           0           0
          67           1   1.1960150000000001       0.61302787457908536      -5.79802928842303444E-002  -5.5082933881415093                0           0           0
          68           1   1.0855290000000000        1.7612194409870385      -0.25726699186183399       -4.9766596457568077                0           0           0
          69           1  0.97821599999999997        2.8748610117995206      -0.73729273703774112       -5.2591389294609927                0           0           0
          70           1   1.4363210000000000        3.8764431314944208      -0.46924813910322882       -4.6856606900276443                0           0           0
          71           1   1.1656560000000000        5.2169140359721649      -0.35895280467575841       -4.9077232611209274                0           0           0
          72           1   1.0241950000000000       -5.1412180447004587       5.73270473813618509E-002  -5.4447024066871847                0           0           0
          73           1  0.83424600000000004       -4.6103765649934072       0.76541313813898704       -4.9657983916476427                0           0           0
          74           1   1.2242780000000000       -5.7193605280374529       0.90167525834176132       -4.8397722163954473                0           0           0
          75           1   1.2615920000000000       -3.9364498509253965       0.26364165612010648       -5.6888441202512690                0           0           0
          76           1  0.96946900000000003       -2.7373507882969959       0.42271091502253633       -5.5130607029790157                0           0           0
          77           1   1.0105480000000000       -3.3832739977541397       0.85833435207123543       -4.7507955984162749                0           0           0
          78           1   1.1696240000000000       -1.6405273097099071       0.71543640962748434       -5.3738714946066235                0           0           0
          79           1  0.91265600000000002       -2.2999537883895691        1.0213318749509961       -4.5789761209347253                0           0           0
          80           1  0.77751099999999995      -0.66849198488113792       0.45368460715994097       -5.3564737746846962                0           0           0
          81           1  0.88239800000000002       0.43195461102483357        1.0353351670810893       -5.3352534227530368                0           0           0
          82           1  0.79924200000000001        1.0761496984408243       0.44423551901118241       -4.6714375406430442                0           0           0
          83           1   1.1011640000000000        1.4528655935090899       0.81822608213972359       -5.6052582552739540                0           0           0
          84           1   1.4763390000000001        2.1765588502967184       0.88785621361720946       -4.5370125214445709                0           0           0
          85           1  0.85063500000000003        2.9554728091231279       0.18549145896591579       -4.8860444497917452                0           0           0
          86           1  0.83979999999999999        3.6400522623396547       0.21035329862606833       -5.5418197266984786                0           0           0
          87           1   1.1119710000000000        4.4767280907049365       0.66235815964553790       -5.0032586902545582                0           0           0
          88           1  0.92940100000000003       -5.4560440406358106        1.9593655668155892       -5.0996518662124029                0           0           0
          89           1  0.98624599999999996       -4.6167053128545454        2.3556774559605245       -5.6296326778539099                0           0           0
          90           1  0.88377099999999997       -3.8570990330593236        1.4225287916063891       -5.5096020202915668                0           0           0
          91           1   1.4289920000000000       -4.4199719267330044        1.7659427660232048       -4.5671554943291159                0           0           0
          92           1   1.2863240000000000       -2.6720272064523178        1.6155135871063688       -5.4871528027512868                0           0           0
          93           1  0.83280200000000004       -3.2646848111366027        1.8620469358442255       -4.5873970238445940                0           0           0
          94           1  0.91532000000000002       -1.5879129539533645        1.8501378973768707       -5.2047958901222229                0           0           0
          95           1   1.0549850000000001      -0.61809272748341471        1.4252829077867952       -5.3275690188672735                0           0           0
          96           1   1.4844250000000001       0.40474932496643312        2.1891487575817443       -5.4350487740080888                0           0           0
          97           1  0.86414400000000002        1.4747321413147914        1.8113630859657359       -5.3056898796115863                0           0           0
          98           1   1.3125690000000001        2.4411864311456792        2.2809725614953145       -5.1460915483637146                0           0           0
          99           1  0.82318199999999997        2.3790614258198222        1.2563873688467115       -5.6212600704112257                0           0           0
         100           1   1.2526790000000001        3.3993207022088363        1.2331342861093155       -5.3635357609648633                0           0           0
         101           1   1.3715560000000000        4.6933267404525321        1.9440067966431975       -5.2164021426695832                0           0           0
         102           1   1.1018300000000001       -5.2721894412044721        2.9225474108167404       -4.6592168677672987                0           0           0
         103           1   1.0932630000000001       -3.5692991348909282        2.4584384279914815       -5.3437864931999526                0           0           0
         104           1  0.91189900000000002       -4.1204405562303172        2.8842579057538611       -4.5130695410598083                0           0           0
         105           1  0.73728300000000002       -2.6135512779767978        2.6395005132410496       -5.2592756436752195                0           0           0
         106           1  0.79696199999999995       -3.3101856043620357        3.3991867551966219       -5.2527495252846670                0           0           0
         107           1   1.2884510000000000       -1.6766749170711535        2.9525663995539730       -4.9461901285147034                0           0           0
         108           1  0.90628100000000000      -0.72775604569260643        2.3967692645652132       -4.7430533749863395                0           0           0
         109           1   1.2439519999999999      -0.38549354353619503        3.3586974118748696       -5.1977158408076649                0           0           0
         110           1  0.85372000000000003      -0.78278625001565061        2.4262876295524709       -5.7188707776385126                0           0           0
         111           1  0.79320299999999999       0.61192516481459513        3.3024034062866949       -5.5977128654277664                0           0           0
         112           1  0.83657099999999995        1.1736486321903419        2.4694461618971708       -4.6469480999044501                0           0           0
         113           1  0.79898800000000003        2.9593690429321633        3.1903998312374000       -4.7858490160828184                0           0           0
         114           1  0.97961900000000002        3.5943230982423344        2.3821267844522271       -4.7885180800046996                0           0           0
         115           1  0.80490099999999998        4.3388707452863411        2.9623915289435256       -5.0324927795229701                0           0           0
         116           1  0.76785300000000001        5.2757281011272568        2.8441617603883493       -5.1961289985713011                0           0           0
         117           1  0.78729899999999997       -4.9549485879574897        4.4910840117263593       -5.4880700419363757                0           0           0
         118           1  0.86933700000000003       -5.5494491492845945        3.5904722747332958       -5.4422327253725458                0           0           0
         119           1   1.4795579999999999       -4.3755740193033557        3.5595182237696754       -5.4173198082278420                0           0           0
         120           1   1.1486650000000000       -3.1820632885960078        4.3758501307500826       -5.0857695768970155                0           0           0
         121           1  0.75789499999999999       -2.3876303712873241        3.7402970420714450       -4.9427320737825156                0           0           0
         122           1  0.80026200000000003       -2.3182507984302685        4.4443799719625812       -5.6163351085268340                0           0           0
         123           1  0.84546600000000005       -1.5233385157417905        3.9563273197342621       -5.5387004176324712                0           0           0
         124           1  0.74727200000000005       -1.2032425997488954        3.8567183659687458       -4.6780983462337451                0           0           0
         125           1   1.1842509999999999       -1.9064107988458008        4.5993056141735256       -4.6947424392148829                0           0           0
         126           1   1.0372950000000001      -0.65443797799788506        4.5164451860292374       -5.4067635190196253                0           0           0
         127           1  0.75573400000000002       0.26279818383765008        4.1600392675718521       -5.1407026363229811                0           0           0
         128           1  0.90554000000000001        1.2381806013199794        4.0861391373764526       -5.6168860560449305                0           0           0
         129           1  0.73019400000000001        1.8097196089285532        4.2153969125584929       -4.6935840177244437                0           0           0
         130           1   1.1501790000000001        2.1507460644160110        3.5492001395639683       -5.3280508352458851                0           0           0
         131           1   1.0361840000000000        3.0261823886055677        4.2491996514959602       -5.0783003745070072                0           0           0
         132           1  0.78415599999999996        3.9308157558988484        3.9060677439677232       -5.1494388812019984                0           0           0
         133           1  0.84128000000000003        4.6833201680934415        4.1797104576398159       -4.6302164969933104                0           0           0
         134           1   1.3047489999999999        4.8098748102511220        3.6867102907027380       -5.6361643231143530                0           0           0
         135           1  0.87163800000000002       -5.3671580142543842        5.3244233237482170       -5.1934365013335331                0           0           0
         136           1   1.1479109999999999       -4.3677374327821150        4.7476988720917674       -4.6961768963469490                0           0           0
         137           1  0.85967499999999997       -3.6116764510087096        5.3380555625670816       -5.1035876992362441                0           0           0
         138           1  0.80051799999999995       -4.4919704379937615        5.3878828400189605       -5.5098078344242492                0           0           0
         139           1   1.1004989999999999       -2.5962550798886421        5.4331263164646728       -5.4088772250801744                0           0           0
         140           1  0.95438500000000004       -1.5535618672625899        5.6935258881224975       -5.2014511857006225                0           0           0
         141           1  0.98720399999999997      -0.34369370207421834        5.6405930236408022       -5.5579916509502709                0           0           0
         142           1  0.86126300000000000       0.21835475282126815        5.0144444286485665       -4.8431487124196142                0           0           0
         143           1  0.79245800000000000        1.0869908779216706        4.6999526271171117       -4.8033238316160629                0           0           0
         144           1   1.2686580000000001        1.9932818464442530        4.9423436395556184       -5.3313340980543096                0           0           0
         145           1  0.86478800000000000        2.9197947957222734        5.2696683414855077       -4.8645034680352284                0           0           0
         146           1  0.73688299999999995        3.1265881297666631        5.0159575399735719       -5.7118041594716109                0           0           0
         147           1   1.4304490000000001        3.9923882895085416        4.9928603679848447       -4.9145184506155628                0           0           0
         148           1  0.76117100000000004        5.1015747475177733        5.0316313353856170       -5.0220511128976408                0           0           0
         149           1  0.81904200000000005        4.6137031103596087        4.8806053686650674        5.6726673780093666                0           0           0
         150           1  0.74355499999999997       -5.1830234846496444       -5.2293780699095791       -3.7827503866994685                0           0           0
         151           1  0.76271500000000003       -3.9040319693018768       -5.0073695959963027       -3.9566697768240999                0           0           0
         152           1  0.76898400000000000       -2.4925871817133345       -4.8069885901857257       -4.0500191999906701                0           0           0
         153           1   1.0236600000000000       -3.1904171734610380       -5.5639374603497362       -3.5273624605929643                0           0           0
         154           1  0.73077700000000001       -1.4158804283141571       -5.0728763351411921       -3.6725063501610689                0           0           0
         155           1   1.1202880000000000       -2.0390144169527331       -5.6814604265796804       -4.1923665059097743                0           0           0
         156           1  0.76807899999999996       -1.2245734753732451       -5.1522500309856740       -4.4899250283036842                0           0           0
         157           1   1.3321630000000000      -0.40943239600019510       -4.9721872167928005       -3.6602733344290450                0           0           0
         158           1  0.80179999999999996       0.66513333240513450       -4.9148793458171447       -3.9435479279596706                0           0           0
         159           1  0.94373200000000002        1.6185791058293031       -5.0661192948808438       -4.0352711153633658                0           0           0
         160           1  0.95481799999999994        3.1762240193697604       -4.6762641486357923       -4.5094170591731615                0           0           0
         161           1   1.4699640000000000        2.7741082591912996       -5.6462846585522231       -3.8624703408109271                0           0           0
         162           1   1.3309860000000000        4.2485250631232141       -5.0896898220028595       -4.0903700556649394                0           0           0
         163           1   1.1672389999999999        5.5624224906125548       -5.5008252601159358       -4.4557994102619070                0           0           0
         164           1  0.96901499999999996       -5.4448803143393789       -4.3986663055137623       -4.4215692056919291                0           0           0
         165           1   1.1382319999999999       -4.6487715273941950       -4.3863445673928219       -3.6090376276627119                0           0           0
         166           1   1.0295930000000000       -5.6964308949925826       -3.7176839960344061       -3.5824135838066202                0           0           0
         167           1  0.75638000000000005       -4.1016550303941486       -3.5511497961414711       -3.8339517694187881                0           0           0
         168           1   1.4976440000000000       -3.2669072477644274       -4.1957218862866990       -3.6185057131611682                0           0           0
         169           1   1.3677140000000001       -1.8378126057353379       -3.9923812448396871       -4.2011257827926549                0           0           0
         170           1  0.87362600000000001      -0.83044786849402197       -4.3113354174689409       -4.4432349426193802                0           0           0
         171           1  0.77448300000000003      -0.48202051429936965       -3.9097436335671070       -3.6636082621676738                0           0           0
         172           1   1.1426689999999999       0.18441415222005375       -4.1443912822522728       -4.4633628779706900                0           0           0
         173           1   1.6053649999999999        1.3740383516681627       -3.8510693695108120       -3.7906815041507773                0           0           0
         174           1  0.81254700000000002        2.3839822313669803       -4.4094863127412456       -4.0239336748206220                0           0           0
         175           1   1.5251770000000000        2.8627340525602794       -3.4521516653002258       -4.4900639766082424                0           0           0
         176           1  0.90739599999999998        3.8977688797499397       -3.9373098607915451       -4.1710598674010511                0           0           0
         177           1  0.91723800000000000        3.4617767574960716       -3.3070196849547502       -3.4523062475071646                0           0           0
         178           1  0.98055700000000001        4.9343088952832961       -4.1349012437926778       -4.2305576334834871                0           0           0
         179           1   1.4378010000000001       -4.9324773444627432       -3.2569045960391589       -4.4118986612058277                0           0           0