LAMMPS data file via write_data, version 17 Nov 2016, timestep = 0
      
  1500 atoms
      
1 atom types
  -5.7235712129999996        5.7235712129999996      xlo xhi
  -5.7235712129999996        5.7235712129999996      ylo yhi
  -5.7235712129999996        5.7235712129999996      zlo zhi
Masses
      
1 1
      
Pair Coeffs # lj/poly
      
                               1 1.0 1.0 2.025 1.25 0.2
      
Atoms # charge
      
           1           1  0.82965299999999997       -5.5516653551852118       -4.8784304411019255       -5.2657899946782152                0           0           0
           2           1   1.5413479999999999       -4.5842609223624038       -5.2683995281811562       -4.7566422857057349                0           0           0
           3           1  0.86062700000000003       -3.8085652829552803       -4.7615893890908714       -5.4909059188628619                0           0           0
           4           1   1.2325940000000000       -3.1813933667922782       -5.2226684696304169       -4.6608949206612049                0           0           0
           5           1  0.92110899999999996       -2.0865959677086083       -4.8880266417557090       -4.8965883054225960                0           0           0
           6           1   1.5043869999999999       -1.0433911359656483       -4.7199606184868577       -5.4672347999295550                0           0           0
           7           1  0.88103100000000001      -0.20935279924130512       -5.1697680131583663       -4.7423357479283563                0           0           0
           8           1  0.92227999999999999       0.28944817780983190       -4.6677768359987395       -5.4669406816225328                0           0           0
           9           1   1.5129459999999999       0.93090670290041366       -5.5258670910245860       -4.9793266162045597                0           0           0
          10           1  0.87097899999999995        2.1111575633814175       -5.5802518443583455       -4.7724214294726313                0           0           0
          11           1  0.82823300000000000        1.9322332806308369       -5.3957534850222206       -5.6971346306422923                0           0           0
          12           1   1.3333429999999999        3.0260329449829815       -5.3275718749440832       -5.5311144599663109                0           0           0
          13           1  0.81986499999999995        4.1185351633041822       -5.3078103855848138       -5.3219742837898831                0           0           0
          14           1  0.74748000000000003        3.5224540045611157       -5.5415539456441358       -4.6448053989146567                0           0           0
          15           1  0.86770400000000003        4.9099194914742395       -4.8162433467264139       -4.9835876939271113                0           0           0
          16           1  0.73948999999999998        4.6876661198636356       -5.6945503421477150       -4.7982870763755034                0           0           0
          17           1   1.1174949999999999       -4.8122717562503832       -4.1465717476479673       -5.5272447268120048                0           0           0
          18           1   1.0167780000000000       -4.0294948743502097       -4.1282603761082388       -4.6478382439525330                0           0           0
          19           1   1.0699300000000000       -2.8752181392039904       -4.0560751861085098       -4.8552803646322564                0           0           0
          20           1  0.76943799999999996       -1.9757310803918928       -4.0757249324201412       -5.2994550314299822                0           0           0
          21           1   1.0829869999999999      -0.23878821989362642       -3.7562359513674979       -5.6615519282891276                0           0           0
          22           1   1.3859269999999999       0.97686918057144201       -3.6849673851428189       -5.3564172104295658                0           0           0
          23           1  0.77240699999999995        1.0762261557161192       -4.5037487613206810       -4.6529942823492672                0           0           0
          24           1   1.1917739999999999        2.0187226897923463       -4.5406964360209772       -4.9980204829366395                0           0           0
          25           1  0.76583000000000001        1.8115244352355555       -3.5370312754421973       -4.7326407708447231                0           0           0
          26           1  0.97774899999999998        2.1619267598170229       -3.5644368932900177       -5.6188357155230442                0           0           0
          27           1  0.83108000000000004        2.9226972762413084       -4.2018162998906128       -5.3761940372479486                0           0           0
          28           1   1.2215430000000000        3.9743924216923521       -4.2758693167409918       -5.2398781550438907                0           0           0
          29           1   1.3806490000000000        5.3877655959500679       -3.8320234054334086       -5.3280006176294963                0           0           0
          30           1   1.0400879999999999       -5.1890189961442443       -2.9540129474629939       -5.6227057159347575                0           0           0
          31           1  0.77126099999999997       -4.3019741833576219       -3.2807908333678806       -5.2684900464679183                0           0           0
          32           1  0.92384800000000000       -4.3024802125128865       -2.3777330069845788       -4.9370564078883561                0           0           0
          33           1  0.88862900000000000       -2.3306004271487346       -3.1305717157602277       -4.8724175973580222                0           0           0
          34           1  0.86158199999999996       -3.0737174306856052       -2.8332046442950078       -5.5401332465945972                0           0           0
          35           1   1.1209890000000000       -1.3108032713797106       -3.3542252030812700       -5.2620632852908251                0           0           0
          36           1   1.2420370000000001      -0.20157118073525027       -2.9248311115707208       -4.7201772156130506                0           0           0
          37           1  0.88274100000000000       -1.0388895856467215       -2.3271513214134498       -5.1670468661342532                0           0           0
          38           1   1.0668899999999999       0.70639913185905900       -2.4475170744395371       -5.4143052457949556                0           0           0
          39           1   1.1892499999999999        1.8804937383438096       -2.5775937067498349       -5.0878859889157422                0           0           0
          40           1  0.78319600000000000        2.8358751506769977       -2.8145602921384638       -5.3680726653251511                0           0           0
          41           1  0.77194799999999997        2.7314970437411290       -2.3015536861647417       -4.5320497768726167                0           0           0
          42           1  0.74873199999999995        3.6628135034629405       -3.3028121444968366       -5.1936414885464366                0           0           0
          43           1   1.0263439999999999        4.5020329454864356       -3.2485753561763899       -4.7635524572647778                0           0           0
          44           1  0.81308199999999997        4.5401752746534410       -2.5173715827856440       -5.4303891322122997                0           0           0
          45           1   1.1161060000000000        3.6578128485698702       -2.3536952985085029       -4.9588684722814280                0           0           0
          46           1   1.2125560000000000        5.4132460875262254       -2.4159732816236428       -4.8909969850298056                0           0           0
          47           1  0.74192100000000005       -5.0838108735467795       -2.0697478287885889       -5.2728531406298744                0           0           0
          48           1  0.91800800000000005       -4.1366152744909890       -1.5472617071245622       -5.5019966157499125                0           0           0
          49           1  0.83222700000000005       -3.2249185495133643       -1.9460790152813234       -5.2742106988311148                0           0           0
          50           1   1.0095200000000000       -2.5256706027329363       -1.2202880219609744       -4.8871557681844635                0           0           0
          51           1   1.4893410000000000       -2.1332800720168938       -2.1912361969192116       -5.5787045962791435                0           0           0
          52           1   1.2179240000000000       -1.3379260576274863       -1.3182816543251956       -4.7705563891441649                0           0           0
          53           1   1.0644769999999999      -0.21444040377343132       -1.6526249145086886       -5.2167971633844612                0           0           0
          54           1   1.3780330000000001       0.97302083220805446       -1.2735036061660647       -5.0274001644330291                0           0           0
          55           1   1.0451729999999999        2.1565475442578315       -1.4295247120239880       -4.8204708791618458                0           0           0
          56           1  0.79520100000000005        3.6438882054348660       -1.3667551022604210       -5.2494401588354878                0           0           0
          57           1   1.0204660000000001        4.4593745813287970       -1.5618872966346951       -4.6095285747949744                0           0           0
          58           1  0.80856499999999998        5.3552096534518032       -1.3709153658615802       -5.0330386474206099                0           0           0
          59           1   1.3538969999999999       -5.0447086186893451       -1.0704982423592870       -4.9827919905837463                0           0           0
          60           1  0.75854699999999997       -4.0568310180771601      -0.67374865310788223       -5.1855317172416786                0           0           0
          61           1  0.73175199999999996       -2.4316042952749330      -0.42822346196939520       -5.3677775342020855                0           0           0
          62           1   1.0328729999999999       -3.2218100632343623      -0.31776709020393046       -4.8589167670968667                0           0           0
          63           1  0.75083299999999997       -1.6042187708746729      -0.29509941639734993       -5.2691463149431863                0           0           0
          64           1  0.82179500000000005       -1.8861080218739232       -1.0750471739964151       -5.6615962228055450                0           0           0
          65           1  0.90665300000000004      -7.65160093172312372E-003 -0.65445698160741905       -4.8672664051783041                0           0           0
          66           1  0.88653700000000002      -0.93518027363817247      -0.29998410997466607       -4.6178528344440828                0           0           0
          67           1   1.1960150000000001       0.61568275027632957      -5.77757790848316688E-002  -5.5087752239031271                0           0           0
          68           1   1.0855290000000000        1.7639484826493215      -0.25725720185395229       -4.9774624073139524                0           0           0
          69           1  0.97821599999999997        2.8755020111492176      -0.73594856963954847       -5.2578435940774551                0           0           0
          70           1   1.4363210000000000        3.8763515244186593      -0.46371356818911380       -4.6843472299236844                0           0           0
          71           1   1.1656560000000000        5.2198940048092428      -0.35642112368803591       -4.9018476569057743                0           0           0
          72           1   1.0241950000000000       -5.1428565548206855       5.85139606885274333E-002  -5.4461561766917947                0           0           0
          73           1  0.83424600000000004       -4.6114121753936672       0.76612905004463272       -4.9655530166093351                0           0           0
          74           1   1.2242780000000000       -5.7176950368006114       0.90258955018477049       -4.8379775110034711                0           0           0
          75           1   1.2615920000000000       -3.9357089327964330       0.26657718259205332       -5.6882662543301823                0           0           0
          76           1  0.96946900000000003       -2.7361841918221361       0.42559282139576915       -5.5138705902727940                0           0           0
          77           1   1.0105480000000000       -3.3819382273317831       0.86104472748558525       -4.7506715978060576                0           0           0
          78           1   1.1696240000000000       -1.6392168784971002       0.71696265993837827       -5.3735011077290462                0           0           0
          79           1  0.91265600000000002       -2.2986693538686622        1.0233753508865862       -4.5784671577938916                0           0           0
          80           1  0.77751099999999995      -0.66694909224199428       0.45464857364232714       -5.3561357169666186                0           0           0
          81           1  0.88239800000000002       0.43427802650507275        1.0344799550979547       -5.3363687299940095                0           0           0
          82           1  0.79924200000000001        1.0785866595751141       0.44412587204688059       -4.6722939223178432                0           0           0
          83           1   1.1011640000000000        1.4552754470608642       0.81790978833894723       -5.6070058620981662                0           0           0
          84           1   1.4763390000000001        2.1777406714168439       0.88795809465991482       -4.5381783086198615                0           0           0
          85           1  0.85063500000000003        2.9580516919918391       0.18821079123222795       -4.8877553968706273                0           0           0
          86           1  0.83979999999999999        3.6452624036825600       0.20985677194196839       -5.5432543326664927                0           0           0
          87           1   1.1119710000000000        4.4792609174834865       0.66399224024148573       -5.0016390621934113                0           0           0
          88           1  0.92940100000000003       -5.4563348081773029        1.9593980479737922       -5.1010183173504799                0           0           0
          89           1  0.98624599999999996       -4.6158890027713220        2.3578134837617988       -5.6284165542370648                0           0           0
          90           1  0.88377099999999997       -3.8563622342160038        1.4252690883669423       -5.5094525084953787                0           0           0
          91           1   1.4289920000000000       -4.4191562557952313        1.7670857144920964       -4.5668363308960780                0           0           0
          92           1   1.2863240000000000       -2.6714317610469496        1.6174693233396473       -5.4867673417850904                0           0           0
          93           1  0.83280200000000004       -3.2636541314015641        1.8645118086609056       -4.5867737221411859                0           0           0
          94           1  0.91532000000000002       -1.5864253486574160        1.8508542618077577       -5.2051311215392060                0           0           0
          95           1   1.0549850000000001      -0.61630953474114847        1.4256730324730622       -5.3291868155102575                0           0           0
          96           1   1.4844250000000001       0.40784298746438008        2.1873269251840561       -5.4385954740976468                0           0           0
          97           1  0.86414400000000002        1.4776198618376002        1.8103435962702124       -5.3064271119353625                0           0           0
          98           1   1.3125690000000001        2.4436210767836162        2.2805102707242089       -5.1475787725791360                0           0           0
          99           1  0.82318199999999997        2.3814699584260399        1.2558857833348736       -5.6228315579306782                0           0           0
         100           1   1.2526790000000001        3.4015925403590774        1.2322666571443435       -5.3640508049055846                0           0           0
         101           1   1.3715560000000000        4.6946613937835391        1.9443898441129415       -5.2164286905544488                0           0           0
         102           1   1.1018300000000001       -5.2698447974569280        2.9220825754772619       -4.6590625221929560                0           0           0
         103           1   1.0932630000000001       -3.5681643045894020        2.4614990799917003       -5.3433440963483489                0           0           0
         104           1  0.91189900000000002       -4.1194557258319282        2.8853882428775375       -4.5127683562591310                0           0           0
         105           1  0.73728300000000002       -2.6132072158949731        2.6418637615652685       -5.2590054292664838                0           0           0
         106           1  0.79696199999999995       -3.3078123983150340        3.4029894662155229       -5.2513066167113163                0           0           0
         107           1   1.2884510000000000       -1.6766321238669208        2.9532789196282216       -4.9467881399030160                0           0           0
         108           1  0.90628100000000000      -0.72752274229830594        2.3949107042938103       -4.7449540234493774                0           0           0
         109           1   1.2439519999999999      -0.38479635583146354        3.3523033083774596       -5.2026422169766153                0           0           0
         110           1  0.85372000000000003      -0.78038050377976376        2.4243661187704184       -5.7214294368139349                0           0           0
         111           1  0.79320299999999999       0.61314302385836950        3.3017288389299839       -5.6009675011112066                0           0           0
         112           1  0.83657099999999995        1.1756039527691611        2.4685012756239235       -4.6491229449150708                0           0           0
         113           1  0.79898800000000003        2.9613726173462371        3.1901520547265356       -4.7871919674048913                0           0           0
         114           1  0.97961900000000002        3.5964561201968372        2.3825097085488611       -4.7897551480143106                0           0           0
         115           1  0.80490099999999998        4.3413055583068783        2.9627293521251463       -5.0320393789136011                0           0           0
         116           1  0.76785300000000001        5.2772326170369865        2.8446739765216531       -5.1960844894720841                0           0           0
         117           1  0.78729899999999997       -4.9525389896943768        4.4957772314091820       -5.4853978657777969                0           0           0
         118           1  0.86933700000000003       -5.5486758515290644        3.5902988971362042       -5.4409027841177595                0           0           0
         119           1   1.4795579999999999       -4.3742586318313679        3.5623968353685171       -5.4163008599521181                0           0           0
         120           1   1.1486650000000000       -3.1813736472043508        4.3811582005992484       -5.0850804488166332                0           0           0
         121           1  0.75789499999999999       -2.3899311687307345        3.7400455645818642       -4.9444141853256447                0           0           0
         122           1  0.80026200000000003       -2.3192657801474810        4.4458651710387471       -5.6189337174841594                0           0           0
         123           1  0.84546600000000005       -1.5263804085366042        3.9545889298225916       -5.5399545600773310                0           0           0
         124           1  0.74727200000000005       -1.2018729193146624        3.8572198813985477       -4.6793040659817935                0           0           0
         125           1   1.1842509999999999       -1.9084860775944681        4.5988661361124468       -4.6980141789203236                0           0           0
         126           1   1.0372950000000001      -0.65315010254019157        4.5068320709627976       -5.4122860914845070                0           0           0
         127           1  0.75573400000000002       0.26339543665929810        4.1548875734874198       -5.1463771497891013                0           0           0
         128           1  0.90554000000000001        1.2390624815012075        4.0859183634069325       -5.6185455608846517                0           0           0
         129           1  0.73019400000000001        1.8119646186510296        4.2119009472445015       -4.6970918564103306                0           0           0
         130           1   1.1501790000000001        2.1519436106734862        3.5475469984672703       -5.3302596922541268                0           0           0
         131           1   1.0361840000000000        3.0260315330793652        4.2492465188660180       -5.0792616678364126                0           0           0
         132           1  0.78415599999999996        3.9316129970844944        3.9075698859363257       -5.1495711731421530                0           0           0
         133           1  0.84128000000000003        4.6851296825564130        4.1816450120265731       -4.6305296544027055                0           0           0
         134           1   1.3047489999999999        4.8108915316136454        3.6874750397027718       -5.6358185976032376                0           0           0
         135           1  0.87163800000000002       -5.3680085857158613        5.3278744349342873       -5.1927417669714719                0           0           0
         136           1   1.1479109999999999       -4.3645258010196493        4.7519201101711062       -4.6929306046307850                0           0           0
         137           1  0.85967499999999997       -3.6101210078987012        5.3446018153481489       -5.0997700316275276                0           0           0
         138           1  0.80051799999999995       -4.4925752041993627        5.3879819687997816       -5.5091017587215756                0           0           0
         139           1   1.1004989999999999       -2.5919370569103597        5.4375581359686365       -5.4112162349407091                0           0           0
         140           1  0.95438500000000004       -1.5442338279754839        5.6925747323901970       -5.2017193459701510                0           0           0
         141           1  0.98720399999999997      -0.35343961547957559        5.6361555231028220       -5.5602454839847475                0           0           0
         142           1  0.86126300000000000       0.22443987088618833        5.0082315748505160       -4.8441070173060954                0           0           0
         143           1  0.79245800000000000        1.0914721287078555        4.6968696553882836       -4.8021584186794639                0           0           0
         144           1   1.2686580000000001        1.9929885584222289        4.9433836158626310       -5.3320576543055136                0           0           0
         145           1  0.86478800000000000        2.9180935207558019        5.2687452592153505       -4.8611270581380275                0           0           0
         146           1  0.73688299999999995        3.1213653504515300        5.0167661614042469       -5.7106090613771388                0           0           0
         147           1   1.4304490000000001        3.9917983931674073        4.9940303857161989       -4.9131322499874805                0           0           0
         148           1  0.76117100000000004        5.1013091296356183        5.0312220163077939       -5.0209869973565011                0           0           0
         149           1  0.81904200000000005        4.6136770384652284        4.8790534621690913        5.6742184921569976                0           0           0
         150           1  0.74355499999999997       -5.1794660488104665       -5.2302856019203157       -3.7830536836872439                0           0           0
         151           1  0.76271500000000003       -3.9029734974268728       -5.0057447613362847       -3.9577043064893340                0           0           0
         152           1  0.76898400000000000       -2.4824115759880638       -4.8022199786056810       -4.0449771203058686                0           0           0
         153           1   1.0236600000000000       -3.1871985400809590       -5.5517998976373830       -3.5178351249260005                0           0           0
         154           1  0.73077700000000001       -1.4912576656075176       -4.8783494889381327       -3.7889678189606375                0           0           0
         155           1   1.1202880000000000       -2.0150986775951019       -5.6726743424017991       -4.1935960303951685                0           0           0
         156           1  0.76807899999999996       -1.1689708665760756       -5.1786139146980723       -4.5018818325262453                0           0           0
         157           1   1.3321630000000000      -0.45467663968734229       -4.9789367465986203       -3.6632646759475676                0           0           0
         158           1  0.80179999999999996       0.64788748482682568       -4.9231834791445079       -3.9488662855938585                0           0           0
         159           1  0.94373200000000002        1.6073183059148413       -5.0671094057635422       -4.0313440428631413                0           0           0
         160           1  0.95481799999999994        3.1709277542609229       -4.6781311776473089       -4.5082352171709195                0           0           0
         161           1   1.4699640000000000        2.7702890915649014       -5.6451164033135139       -3.8601840698725813                0           0           0
         162           1   1.3309860000000000        4.2461956823448865       -5.0914784412440079       -4.0887279335299187                0           0           0
         163           1   1.1672389999999999        5.5630111614041571       -5.4961183881947449       -4.4558859520897851                0           0           0
         164           1  0.96901499999999996       -5.4394466606804608       -4.3956089053591603       -4.4236439479287135                0           0           0
         165           1   1.1382319999999999       -4.6485537222056728       -4.3846567956709146       -3.6084211570044284                0           0           0
         166           1   1.0295930000000000       -5.6944780752538922       -3.7177150979522935       -3.5816847130315752                0           0           0
         167           1  0.75638000000000005       -4.1060411686496723       -3.5486935524040697       -3.8368569334942775                0           0           0
         168           1   1.4976440000000000       -3.2674587394288044       -4.1949496847531389       -3.6200508000173945                0           0           0
         169           1   1.3677140000000001       -1.8483331703797643       -3.9682718841175637       -4.1956810366032959                0           0           0
         170           1  0.87362600000000001      -0.84883761492403309       -4.3021188886313455       -4.4460730558195394                0           0           0
         171           1  0.77448300000000003      -0.49119523065374882       -3.9104792705541889       -3.6631762435900312                0           0           0
         172           1   1.1426689999999999       0.17024656579688013       -4.1517162636060050       -4.4591764998250891                0           0           0
         173           1   1.6053649999999999        1.3682055558743960       -3.8530180775386209       -3.7917925855318186                0           0           0
         174           1  0.81254700000000002        2.3789699179019728       -4.4124875447809870       -4.0222069438908967                0           0           0
         175           1   1.5251770000000000        2.8634785615715526       -3.4544957375375835       -4.4878607537543678                0           0           0
         176           1  0.90739599999999998        3.8956666562149511       -3.9453628840099144       -4.1701499475796941                0           0           0
         177           1  0.91723800000000000        3.4651503061472759       -3.3080445843501600       -3.4531412750038926                0           0           0
         178           1  0.98055700000000001        4.9381788129723994       -4.1434638148627174       -4.2264811171201080                0           0           0
         179           1   1.4378010000000001       -4.9409006119945618       -3.2473432920551648       -4.4116633461046426                0           0           0