LAMMPS data file via write_data, version 17 Nov 2016, timestep = 0
      
  1500 atoms
      
1 atom types
  -5.7235712129999996        5.7235712129999996      xlo xhi
  -5.7235712129999996        5.7235712129999996      ylo yhi
  -5.7235712129999996        5.7235712129999996      zlo zhi
Masses
      
1 1
      
Pair Coeffs # lj/poly
      
                               1 1.0 1.0 2.025 1.25 0.2
      
Atoms # charge
      
           1           1  0.82965299999999997       -5.5491224066905644       -4.8781316085216302       -5.2649381082820907                0           0           0
           2           1   1.5413479999999999       -4.5852338348173847       -5.2700670820483815       -4.7549127214642590                0           0           0
           3           1  0.86062700000000003       -3.8116803038165483       -4.7649794409984381       -5.4940777539956960                0           0           0
           4           1   1.2325940000000000       -3.1850381131957199       -5.2245375415697168       -4.6642972017382451                0           0           0
           5           1  0.92110899999999996       -2.0862385166103503       -4.8949544746515805       -4.9015663912811434                0           0           0
           6           1   1.5043869999999999       -1.0401927241748838       -4.7216165639364718       -5.4725885450221066                0           0           0
           7           1  0.88103100000000001      -0.20484328850181832       -5.1616263897023167       -4.7426870322861170                0           0           0
           8           1  0.92227999999999999       0.29281592661637301       -4.6659088954662762       -5.4701879344571065                0           0           0
           9           1   1.5129459999999999       0.93655464257906473       -5.5207477259358120       -4.9830893080447032                0           0           0
          10           1  0.87097899999999995        2.1142088551978997       -5.5788430871053682       -4.7737279964350217                0           0           0
          11           1  0.82823300000000000        1.9383084437164468       -5.3923621345883994       -5.6980666961440578                0           0           0
          12           1   1.3333429999999999        3.0328082786204664       -5.3233020202847783       -5.5309541422523054                0           0           0
          13           1  0.81986499999999995        4.1246163600997665       -5.3044954958364681       -5.3225218501452343                0           0           0
          14           1  0.74748000000000003        3.5263398600319533       -5.5397453514361832       -4.6447060954628911                0           0           0
          15           1  0.86770400000000003        4.9196596410042162       -4.8165586266976907       -4.9799021347000707                0           0           0
          16           1  0.73948999999999998        4.6890701627287559       -5.6947620351939330       -4.7977181392559833                0           0           0
          17           1   1.1174949999999999       -4.8078401773993189       -4.1497919630739792       -5.5296525200332534                0           0           0
          18           1   1.0167780000000000       -4.0218595915699193       -4.1351275004970649       -4.6484939301224948                0           0           0
          19           1   1.0699300000000000       -2.8678271666994410       -4.0613574742677532       -4.8538117350320196                0           0           0
          20           1  0.76943799999999996       -1.9719356922270612       -4.0810783279289025       -5.3019831179711971                0           0           0
          21           1   1.0829869999999999      -0.23538732159097275       -3.7555729255716406       -5.6618565366774813                0           0           0
          22           1   1.3859269999999999       0.98162722239085998       -3.6841182961969992       -5.3584903626553944                0           0           0
          23           1  0.77240699999999995        1.0864434735828432       -4.5011834615770629       -4.6518635980478269                0           0           0
          24           1   1.1917739999999999        2.0265239781596769       -4.5383864451224429       -4.9995827153460741                0           0           0
          25           1  0.76583000000000001        1.8115594064577847       -3.5356907144911132       -4.7322107855487427                0           0           0
          26           1  0.97774899999999998        2.1672916133371620       -3.5622199494268738       -5.6181404475881562                0           0           0
          27           1  0.83108000000000004        2.9335986777167697       -4.1990313171938727       -5.3742857188401905                0           0           0
          28           1   1.2215430000000000        3.9889006631369952       -4.2725746775616917       -5.2336966828314448                0           0           0
          29           1   1.3806490000000000        5.3879332230718600       -3.8284596714720140       -5.3272919126515319                0           0           0
          30           1   1.0400879999999999       -5.1698954041215552       -2.9702936783186216       -5.6303097841847700                0           0           0
          31           1  0.77126099999999997       -4.2897637726965909       -3.2885462463471304       -5.2666855978402385                0           0           0
          32           1  0.92384800000000000       -4.2948984867238824       -2.3895299106946597       -4.9373407156067302                0           0           0
          33           1  0.88862900000000000       -2.3236544039053264       -3.1385857608883128       -4.8727761021845701                0           0           0
          34           1  0.86158199999999996       -3.0717409014078103       -2.8382199706037383       -5.5403149411918964                0           0           0
          35           1   1.1209890000000000       -1.3081303467426038       -3.3591231357320366       -5.2624582884458508                0           0           0
          36           1   1.2420370000000001      -0.20222925075260800       -2.9264940378312629       -4.7186922715478499                0           0           0
          37           1  0.88274100000000000       -1.0399193726126557       -2.3305596950181933       -5.1671455855273871                0           0           0
          38           1   1.0668899999999999       0.70322343774236096       -2.4479347929712545       -5.4140677364531724                0           0           0
          39           1   1.1892499999999999        1.8736555460588571       -2.5755133743095300       -5.0873035302150100                0           0           0
          40           1  0.78319600000000000        2.8191471952729206       -2.8153739435638077       -5.3729170368682322                0           0           0
          41           1  0.77194799999999997        2.7230866212130227       -2.2984957619197783       -4.5325083971362652                0           0           0
          42           1  0.74873199999999995        3.6785240152771301       -3.3157336870174747       -5.1760646844911458                0           0           0
          43           1   1.0263439999999999        4.5214366017398255       -3.2059041249616844       -4.7469391537630603                0           0           0
          44           1  0.81308199999999997        4.5564906634924913       -2.4877246208890580       -5.4156996122255219                0           0           0
          45           1   1.1161060000000000        3.6422808417105994       -2.3684799548777122       -4.9674233354095421                0           0           0
          46           1   1.2125560000000000        5.4717417596363056       -2.4233536300455167       -4.9165048828164011                0           0           0
          47           1  0.74192100000000005       -5.0161602253772770       -2.0545657266487201       -5.3681839608222637                0           0           0
          48           1  0.91800800000000005       -4.1464295743467510       -1.5531085668001001       -5.5034737588046649                0           0           0
          49           1  0.83222700000000005       -3.2294915609669874       -1.9518421790640250       -5.2763118679473333                0           0           0
          50           1   1.0095200000000000       -2.5304820938163708       -1.2251486344924931       -4.8870406926577292                0           0           0
          51           1   1.4893410000000000       -2.1338659578418353       -2.1946966272708166       -5.5791913318143349                0           0           0
          52           1   1.2179240000000000       -1.3412727486255749       -1.3236938913287588       -4.7691180391510253                0           0           0
          53           1   1.0644769999999999      -0.21649430284486648       -1.6533031542058580       -5.2152129674102206                0           0           0
          54           1   1.3780330000000001       0.97174426317840723       -1.2739916981977171       -5.0270466573200112                0           0           0
          55           1   1.0451729999999999        2.1556930251588673       -1.4293508156505004       -4.8203526151147100                0           0           0
          56           1  0.79520100000000005        3.6405307258576425       -1.3756004605585890       -5.2470641590315754                0           0           0
          57           1   1.0204660000000001        4.4273965380919478       -1.5956146388814663       -4.5993258763350013                0           0           0
          58           1  0.80856499999999998        5.3301941115953611       -1.3805575282136724       -5.0154775217697303                0           0           0
          59           1   1.3538969999999999       -5.0609937171469817       -1.0799918958880008       -4.9878699766062820                0           0           0
          60           1  0.75854699999999997       -4.0658893568947487      -0.68043626761657450       -5.1855745669166762                0           0           0
          61           1  0.73175199999999996       -2.4353968466249927      -0.43285205636051582       -5.3675021495339079                0           0           0
          62           1   1.0328729999999999       -3.2274714206253687      -0.32339383081991002       -4.8610360883820389                0           0           0
          63           1  0.75083299999999997       -1.6075426789368565      -0.29586342155215473       -5.2693701486831470                0           0           0
          64           1  0.82179500000000005       -1.8884523106719953       -1.0780301174281917       -5.6597470279916546                0           0           0
          65           1  0.90665300000000004      -8.36161616803821062E-003 -0.65502049893758141       -4.8666811830811270                0           0           0
          66           1  0.88653700000000002      -0.93707593758727459      -0.30468692536601782       -4.6174215831413781                0           0           0
          67           1   1.1960150000000001       0.61343483413748601      -5.72457664854741921E-002  -5.5083017693169278                0           0           0
          68           1   1.0855290000000000        1.7613358502810188      -0.25659606828630110       -4.9759810375404632                0           0           0
          69           1  0.97821599999999997        2.8755840085944477      -0.73703702933889836       -5.2589820050339409                0           0           0
          70           1   1.4363210000000000        3.8773693037221069      -0.46902150137208043       -4.6854702559150532                0           0           0
          71           1   1.1656560000000000        5.2172596015440043      -0.35807150285196876       -4.9083577132463940                0           0           0
          72           1   1.0241950000000000       -5.1411245917102431       5.74296957240854056E-002  -5.4436136072916597                0           0           0
          73           1  0.83424600000000004       -4.6086579372515653       0.76593890492607208       -4.9661498028600546                0           0           0
          74           1   1.2242780000000000       -5.7178116624927089       0.90273677202732117       -4.8391036219447834                0           0           0
          75           1   1.2615920000000000       -3.9377614772761556       0.26216277130890120       -5.6903042922389773                0           0           0
          76           1  0.96946900000000003       -2.7378663250584672       0.42184361695714223       -5.5140074855509820                0           0           0
          77           1   1.0105480000000000       -3.3862250195866035       0.85518000365099489       -4.7531803712720615                0           0           0
          78           1   1.1696240000000000       -1.6410236761397261       0.71618366039094905       -5.3751465149454098                0           0           0
          79           1  0.91265600000000002       -2.3048000128213171        1.0172966399306942       -4.5829772399613944                0           0           0
          80           1  0.77751099999999995      -0.66889308786429513       0.45473965421312013       -5.3564171462222294                0           0           0
          81           1  0.88239800000000002       0.43153792970123117        1.0354499905357715       -5.3356311877125027                0           0           0
          82           1  0.79924200000000001        1.0759471824889406       0.44419610000450316       -4.6710722418223698                0           0           0
          83           1   1.1011640000000000        1.4528415520755233       0.81931178726831710       -5.6054795011376255                0           0           0
          84           1   1.4763390000000001        2.1777104342406162       0.88847583522087703       -4.5379642641787017                0           0           0
          85           1  0.85063500000000003        2.9560239267614179       0.18513700786459442       -4.8854224498859047                0           0           0
          86           1  0.83979999999999999        3.6404332245518205       0.21200962783415367       -5.5410758056141365                0           0           0
          87           1   1.1119710000000000        4.4774575811073998       0.66338776738594785       -5.0025814827450734                0           0           0
          88           1  0.92940100000000003       -5.4546146692008168        1.9604759492161064       -5.0987117889776989                0           0           0
          89           1  0.98624599999999996       -4.6154217932163633        2.3556724382964340       -5.6289129295669174                0           0           0
          90           1  0.88377099999999997       -3.8574998476132256        1.4235950553570209       -5.5096921358974864                0           0           0
          91           1   1.4289920000000000       -4.4191421632698304        1.7657720630809637       -4.5650278713678007                0           0           0
          92           1   1.2863240000000000       -2.6726938694454492        1.6151674376194780       -5.4902902334849166                0           0           0
          93           1  0.83280200000000004       -3.2657045945932279        1.8583390390161734       -4.5919900961659881                0           0           0
          94           1  0.91532000000000002       -1.5885472113825303        1.8501835983657973       -5.2095068286792987                0           0           0
          95           1   1.0549850000000001      -0.61791720366483460        1.4264004885743082       -5.3298284044093833                0           0           0
          96           1   1.4844250000000001       0.40689987423548679        2.1888062379315212       -5.4377537710339352                0           0           0
          97           1  0.86414400000000002        1.4766634595174706        1.8122000549648263       -5.3070948651589749                0           0           0
          98           1   1.3125690000000001        2.4424947946274749        2.2818710782281801       -5.1465204819773014                0           0           0
          99           1  0.82318199999999997        2.3794984903990635        1.2578787899422323       -5.6224472224207265                0           0           0
         100           1   1.2526790000000001        3.3999422786866980        1.2348178265786105       -5.3635234505826217                0           0           0
         101           1   1.3715560000000000        4.6945502168701712        1.9450700169191029       -5.2155132651094398                0           0           0
         102           1   1.1018300000000001       -5.2706662681879024        2.9228468727949615       -4.6570402453589415                0           0           0
         103           1   1.0932630000000001       -3.5679917471811651        2.4597876328153969       -5.3439694532533961                0           0           0
         104           1  0.91189900000000002       -4.1195143821539828        2.8847178738688122       -4.5137502157426663                0           0           0
         105           1  0.73728300000000002       -2.6118617506455397        2.6388570931342503       -5.2601041404439508                0           0           0
         106           1  0.79696199999999995       -3.3098696088699273        3.4007138387785325       -5.2544089330401613                0           0           0
         107           1   1.2884510000000000       -1.6745446930115833        2.9515714558300186       -4.9488459537460834                0           0           0
         108           1  0.90628100000000000      -0.72533005770580772        2.3963969816514936       -4.7449243908722369                0           0           0
         109           1   1.2439519999999999      -0.38372759457727046        3.3565275935077050       -5.2004423250196137                0           0           0
         110           1  0.85372000000000003      -0.78303785102172796        2.4263205400909325       -5.7210860372913146                0           0           0
         111           1  0.79320299999999999       0.61329482318851447        3.3029280167359190       -5.5998235245729466                0           0           0
         112           1  0.83657099999999995        1.1765440502527698        2.4699347558336822       -4.6492334818556653                0           0           0
         113           1  0.79898800000000003        2.9606950827345386        3.1910521177264393       -4.7861116273584026                0           0           0
         114           1  0.97961900000000002        3.5959127840129916        2.3829255245390506       -4.7888904229890876                0           0           0
         115           1  0.80490099999999998        4.3413182214362944        2.9632098739832280       -5.0306506191048639                0           0           0
         116           1  0.76785300000000001        5.2775638652372852        2.8458359589938258       -5.1947284211649079                0           0           0
         117           1  0.78729899999999997       -4.9529070529178387        4.4929386496223191       -5.4852084233029146                0           0           0
         118           1  0.86933700000000003       -5.5488515929117632        3.5905740590330257       -5.4402196141326948                0           0           0
         119           1   1.4795579999999999       -4.3753119371676013        3.5602925471469522       -5.4169818723083933                0           0           0
         120           1   1.1486650000000000       -3.1790580332547802        4.3768605654954875       -5.0835486184454233                0           0           0
         121           1  0.75789499999999999       -2.3821611724302643        3.7423558243776114       -4.9461690130520681                0           0           0
         122           1  0.80026200000000003       -2.3170273261132701        4.4434711018099353       -5.6157464494122529                0           0           0
         123           1  0.84546600000000005       -1.5223823755558392        3.9551391302563381       -5.5396991409607095                0           0           0
         124           1  0.74727200000000005       -1.2018168944688146        3.8547885768551744       -4.6796403243601254                0           0           0
         125           1   1.1842509999999999       -1.9030919135894169        4.6009039503626585       -4.6957207930386513                0           0           0
         126           1   1.0372950000000001      -0.65232766776633966        4.5127448111092914       -5.4099959335888226                0           0           0
         127           1  0.75573400000000002       0.26248617661598850        4.1596629041481972       -5.1422603557257327                0           0           0
         128           1  0.90554000000000001        1.2399768811574923        4.0863904774066349       -5.6183458229563872                0           0           0
         129           1  0.73019400000000001        1.8127491499358763        4.2138915303407796       -4.6973674517841921                0           0           0
         130           1   1.1501790000000001        2.1524807863020508        3.5487922124801425       -5.3303228668227289                0           0           0
         131           1   1.0361840000000000        3.0261919971953546        4.2509845361140339       -5.0784317715790772                0           0           0
         132           1  0.78415599999999996        3.9312948295771619        3.9080851927517504       -5.1488458853038264                0           0           0
         133           1  0.84128000000000003        4.6847258158852814        4.1813640623801760       -4.6294491127253528                0           0           0
         134           1   1.3047489999999999        4.8106073811672321        3.6877439190460528       -5.6350870048035411                0           0           0
         135           1  0.87163800000000002       -5.3649332630717508        5.3247090580488887       -5.1927843105548588                0           0           0
         136           1   1.1479109999999999       -4.3642886626121129        4.7474715240387173       -4.6932065379840777                0           0           0
         137           1  0.85967499999999997       -3.6087167349491138        5.3390032585145235       -5.1012167052102431                0           0           0
         138           1  0.80051799999999995       -4.4895871123616535        5.3870257050974395       -5.5079508548496969                0           0           0
         139           1   1.1004989999999999       -2.5913271437418568        5.4343564735157379       -5.4095211832870449                0           0           0
         140           1  0.95438500000000004       -1.5444897878477182        5.6916135811805511       -5.2055834972643851                0           0           0
         141           1  0.98720399999999997      -0.34238172351678831        5.6405656807577103       -5.5577678594615536                0           0           0
         142           1  0.86126300000000000       0.22634739984943142        5.0146194013682965       -4.8445077179309033                0           0           0
         143           1  0.79245800000000000        1.0920257547015710        4.6985960152302706       -4.8030837840786500                0           0           0
         144           1   1.2686580000000001        1.9941993243199718        4.9447128667873308       -5.3325386886522548                0           0           0
         145           1  0.86478800000000000        2.9197767075472907        5.2715904245974148       -4.8624162969294025                0           0           0
         146           1  0.73688299999999995        3.1257424612786870        5.0177398809635605       -5.7099077118644779                0           0           0
         147           1   1.4304490000000001        3.9926789991918650        4.9944848709030492       -4.9131639079599276                0           0           0
         148           1  0.76117100000000004        5.1024800895795064        5.0312813314591391       -5.0204722650874443                0           0           0
         149           1  0.81904200000000005        4.6149808707029827        4.8810144951215637        5.6744038316100784                0           0           0
         150           1  0.74355499999999997       -5.1806716541733362       -5.2328880586115192       -3.7812885080730450                0           0           0
         151           1  0.76271500000000003       -3.9024049711837612       -5.0077901164956806       -3.9565142130723441                0           0           0
         152           1  0.76898400000000000       -2.4876648770508289       -4.8082190496000736       -4.0474805435350030                0           0           0
         153           1   1.0236600000000000       -3.1902267933111341       -5.5604568916179087       -3.5213786676578658                0           0           0
         154           1  0.73077700000000001       -1.4584079806194499       -4.9245923985186284       -3.7371471272543841                0           0           0
         155           1   1.1202880000000000       -2.0228764309116989       -5.6742377483160658       -4.1951041108764837                0           0           0
         156           1  0.76807899999999996       -1.1907366768448870       -5.1710459115484735       -4.5101301482103642                0           0           0
         157           1   1.3321630000000000      -0.42799645522833618       -4.9754672554584980       -3.6600795414247576                0           0           0
         158           1  0.80179999999999996       0.66007069340565394       -4.9169845787507658       -3.9429615777665048                0           0           0
         159           1  0.94373200000000002        1.6161869030402203       -5.0648093417949553       -4.0319086345312911                0           0           0
         160           1  0.95481799999999994        3.1773105599843294       -4.6741857952620283       -4.5076296076785018                0           0           0
         161           1   1.4699640000000000        2.7730264964531344       -5.6426783298735046       -3.8613065945670622                0           0           0
         162           1   1.3309860000000000        4.2497734414868393       -5.0890478366984713       -4.0890716237463671                0           0           0
         163           1   1.1672389999999999        5.5652005954281663       -5.5023436427064754       -4.4555030521830226                0           0           0
         164           1  0.96901499999999996       -5.4448468243858859       -4.3996955440729435       -4.4205003082257619                0           0           0
         165           1   1.1382319999999999       -4.6483757004571258       -4.3878248209204349       -3.6086693834935999                0           0           0
         166           1   1.0295930000000000       -5.6961738338342407       -3.7180969890028979       -3.5815304850353518                0           0           0
         167           1  0.75638000000000005       -4.0997699213551666       -3.5535216380350163       -3.8328814659720871                0           0           0
         168           1   1.4976440000000000       -3.2650701031957778       -4.1980878025241140       -3.6176252832257272                0           0           0
         169           1   1.3677140000000001       -1.8357652992345579       -3.9929451502869018       -4.1968396985463663                0           0           0
         170           1  0.87362600000000001      -0.83223195005888062       -4.3112793818201398       -4.4499059174485307                0           0           0
         171           1  0.77448300000000003      -0.48662148374090552       -3.9118832857933263       -3.6622552963604682                0           0           0
         172           1   1.1426689999999999       0.18252844584316819       -4.1476570585296972       -4.4590758536797210                0           0           0
         173           1   1.6053649999999999        1.3726092386826165       -3.8509357709668972       -3.7887751847146900                0           0           0
         174           1  0.81254700000000002        2.3837342312709549       -4.4100399298535962       -4.0218933460405140                0           0           0
         175           1   1.5251770000000000        2.8616004821973480       -3.4511669345923215       -4.4876333392403378                0           0           0
         176           1  0.90739599999999998        3.8981695307728454       -3.9353000547388541       -4.1713028124237290                0           0           0
         177           1  0.91723800000000000        3.4628526303049352       -3.3058478948994434       -3.4510026810586516                0           0           0
         178           1  0.98055700000000001        4.9343168303899123       -4.1334115569323266       -4.2296181725838418                0           0           0
         179           1   1.4378010000000001       -4.9302755032944070       -3.2594271402985191       -4.4110809378429945                0           0           0