LAMMPS data file via write_data, version 17 Nov 2016, timestep = 0
      
  1500 atoms
      
1 atom types
  -5.7235712129999996        5.7235712129999996      xlo xhi
  -5.7235712129999996        5.7235712129999996      ylo yhi
  -5.7235712129999996        5.7235712129999996      zlo zhi
Masses
      
1 1
      
Pair Coeffs # lj/poly
      
                               1 1.0 1.0 2.025 1.25 0.2
      
Atoms # charge
      
           1           1  0.82965299999999997       -5.5527072103238595       -4.8785053425531579       -5.2644758369652820                0           0           0
           2           1   1.5413479999999999       -4.5880840346897838       -5.2705056691538434       -4.7547611469675486                0           0           0
           3           1  0.86062700000000003       -3.8166945035665547       -4.7613335402872270       -5.4930211064606844                0           0           0
           4           1   1.2325940000000000       -3.1907991166202323       -5.2224305400049298       -4.6658449369678392                0           0           0
           5           1  0.92110899999999996       -2.0953954260057497       -4.8972627876067074       -4.9002232413454800                0           0           0
           6           1   1.5043869999999999       -1.0431221633504251       -4.7231767430186489       -5.4625745373505348                0           0           0
           7           1  0.88103100000000001      -0.19876000991986498       -5.1612878833311333       -4.7443776907854565                0           0           0
           8           1  0.92227999999999999       0.29984591890180567       -4.6646473502866765       -5.4698904160213146                0           0           0
           9           1   1.5129459999999999       0.93845521829602241       -5.5234018439400483       -4.9830208282039621                0           0           0
          10           1  0.87097899999999995        2.1160966244986241       -5.5805164896188533       -4.7749987823671347                0           0           0
          11           1  0.82823300000000000        1.9347676356773329       -5.3952387371218959       -5.6988075400339193                0           0           0
          12           1   1.3333429999999999        3.0285912956006005       -5.3275399281815616       -5.5336568010745193                0           0           0
          13           1  0.81986499999999995        4.1203339067479234       -5.3059841749218073       -5.3242435912853354                0           0           0
          14           1  0.74748000000000003        3.5247805158845651       -5.5419737190487668       -4.6474850159159757                0           0           0
          15           1  0.86770400000000003        4.9111566562864404       -4.8159180298779081       -4.9836973606938990                0           0           0
          16           1  0.73948999999999998        4.6864267126976440       -5.6952488292242975       -4.7995942204542041                0           0           0
          17           1   1.1174949999999999       -4.8118398679794341       -4.1469047965022874       -5.5237107728571022                0           0           0
          18           1   1.0167780000000000       -4.0279333451899388       -4.1322664131035998       -4.6448047719496257                0           0           0
          19           1   1.0699300000000000       -2.8729439931041485       -4.0595402024449472       -4.8528288428419328                0           0           0
          20           1  0.76943799999999996       -1.9757805442828631       -4.0817815524870644       -5.2994860955796703                0           0           0
          21           1   1.0829869999999999      -0.23596686577887205       -3.7587282356939582       -5.6613077105207452                0           0           0
          22           1   1.3859269999999999       0.98384499251590896       -3.6824377941693505       -5.3610139839023994                0           0           0
          23           1  0.77240699999999995        1.0861409967511735       -4.5016613322053862       -4.6542798522398474                0           0           0
          24           1   1.1917739999999999        2.0253888008975665       -4.5400856669010592       -5.0001942942493152                0           0           0
          25           1  0.76583000000000001        1.8151727640633259       -3.5375209141173420       -4.7330423069038217                0           0           0
          26           1  0.97774899999999998        2.1670957874817525       -3.5635482616096228       -5.6199305567743485                0           0           0
          27           1  0.83108000000000004        2.9274286515778893       -4.2003007866744664       -5.3784539470364150                0           0           0
          28           1   1.2215430000000000        3.9769620265302006       -4.2745912185114365       -5.2397556388306121                0           0           0
          29           1   1.3806490000000000        5.3891162732993969       -3.8308367684733922       -5.3266387413121539                0           0           0
          30           1   1.0400879999999999       -5.1901504225301043       -2.9440083035846785       -5.6152248191911545                0           0           0
          31           1  0.77126099999999997       -4.3029144241244301       -3.2810193364713038       -5.2690526835636398                0           0           0
          32           1  0.92384800000000000       -4.2883957328472064       -2.3837067636180014       -4.9317721702280872                0           0           0
          33           1  0.88862900000000000       -2.3260936884478718       -3.1374709612766365       -4.8718312426765715                0           0           0
          34           1  0.86158199999999996       -3.0751115170607664       -2.8356363961957940       -5.5353557657471022                0           0           0
          35           1   1.1209890000000000       -1.3095560322705238       -3.3597973962501495       -5.2627088504043504                0           0           0
          36           1   1.2420370000000001      -0.20186748426848400       -2.9260058044987614       -4.7196789163161181                0           0           0
          37           1  0.88274100000000000       -1.0406722378834417       -2.3312183866968490       -5.1665363860875688                0           0           0
          38           1   1.0668899999999999       0.70684911927084926       -2.4476909813483787       -5.4134215553437679                0           0           0
          39           1   1.1892499999999999        1.8819843642922907       -2.5776105008130639       -5.0882956588202832                0           0           0
          40           1  0.78319600000000000        2.8365442514722812       -2.8162638740633117       -5.3720491469406451                0           0           0
          41           1  0.77194799999999997        2.7305869920191608       -2.3009146154075766       -4.5304457363490203                0           0           0
          42           1  0.74873199999999995        3.6640487421065249       -3.3014415894681970       -5.1968266001065153                0           0           0
          43           1   1.0263439999999999        4.5015189000628109       -3.2499293844745485       -4.7631649586372102                0           0           0
          44           1  0.81308199999999997        4.5367605540986045       -2.5173156054172630       -5.4290227994360238                0           0           0
          45           1   1.1161060000000000        3.6555702253063949       -2.3535273107912480       -4.9579230525537454                0           0           0
          46           1   1.2125560000000000        5.4064699122381228       -2.4166338033612114       -4.8863417604893673                0           0           0
          47           1  0.74192100000000005       -4.9936757562381242       -2.0338913683838138       -5.3647249735546785                0           0           0
          48           1  0.91800800000000005       -4.1445994090288840       -1.5489337321972210       -5.5017677529715252                0           0           0
          49           1  0.83222700000000005       -3.2282210829043194       -1.9478055867160595       -5.2751788102890025                0           0           0
          50           1   1.0095200000000000       -2.5268101639647798       -1.2226535526328179       -4.8874160233121184                0           0           0
          51           1   1.4893410000000000       -2.1348135547218305       -2.1938985292876638       -5.5783794647305065                0           0           0
          52           1   1.2179240000000000       -1.3398962585228258       -1.3234911969331273       -4.7688587466985020                0           0           0
          53           1   1.0644769999999999      -0.21580839974602561       -1.6546577798780229       -5.2148752953737132                0           0           0
          54           1   1.3780330000000001       0.97217081845945152       -1.2740254408257758       -5.0264649241403960                0           0           0
          55           1   1.0451729999999999        2.1561917641903117       -1.4294370773133265       -4.8207206285952031                0           0           0
          56           1  0.79520100000000005        3.6444813424782971       -1.3665954536054761       -5.2496421674907818                0           0           0
          57           1   1.0204660000000001        4.4569332074823524       -1.5624754667618994       -4.6066737786434171                0           0           0
          58           1  0.80856499999999998        5.3533743006278520       -1.3705690316684311       -5.0260055526375647                0           0           0
          59           1   1.3538969999999999       -5.0481269459433644       -1.0660937997303028       -4.9816288947278213                0           0           0
          60           1  0.75854699999999997       -4.0579635024917380      -0.67527348452705827       -5.1859911053416505                0           0           0
          61           1  0.73175199999999996       -2.4330786377510556      -0.43060635095831845       -5.3680714417376150                0           0           0
          62           1   1.0328729999999999       -3.2225707842672313      -0.31928499733383298       -4.8590558910654478                0           0           0
          63           1  0.75083299999999997       -1.6057557898264090      -0.29514836685816093       -5.2696680296396377                0           0           0
          64           1  0.82179500000000005       -1.8858792087063221       -1.0769279310354998       -5.6604756039284503                0           0           0
          65           1  0.90665300000000004      -8.33359069264361096E-003 -0.65555539732194745       -4.8666798580809782                0           0           0
          66           1  0.88653700000000002      -0.93654769178332220      -0.30325296509218092       -4.6178374396913320                0           0           0
          67           1   1.1960150000000001       0.61446392505399050      -5.84176328336916129E-002  -5.5086301986101978                0           0           0
          68           1   1.0855290000000000        1.7631067066634456      -0.25767435556159946       -4.9773332378945909                0           0           0
          69           1  0.97821599999999997        2.8755608954075704      -0.73610861573772279       -5.2576341999398446                0           0           0
          70           1   1.4363210000000000        3.8761891551839440      -0.46341810142540929       -4.6839169065774371                0           0           0
          71           1   1.1656560000000000        5.2191967280121769      -0.35520213229525588       -4.9029637932527486                0           0           0
          72           1   1.0241950000000000       -5.1434612546984191       6.07843653852908616E-002  -5.4480048442508195                0           0           0
          73           1  0.83424600000000004       -4.6112535299322106       0.76591289765720028       -4.9654119858260319                0           0           0
          74           1   1.2242780000000000       -5.7183015421350172       0.90338548781051387       -4.8381034779077519                0           0           0
          75           1   1.2615920000000000       -3.9361096860091553       0.26582703691757725       -5.6886030569356034                0           0           0
          76           1  0.96946900000000003       -2.7363523138340278       0.42435151776656710       -5.5133804763835306                0           0           0
          77           1   1.0105480000000000       -3.3829046338750226       0.85998665723845757       -4.7510321773510391                0           0           0
          78           1   1.1696240000000000       -1.6397708623325169       0.71680486628842122       -5.3738651240681952                0           0           0
          79           1  0.91265600000000002       -2.3000968921833005        1.0213000502414573       -4.5791465191783232                0           0           0
          80           1  0.77751099999999995      -0.66796391972877167       0.45353585148697562       -5.3571041389698024                0           0           0
          81           1  0.88239800000000002       0.43325326549671583        1.0348490759234776       -5.3361330585251823                0           0           0
          82           1  0.79924200000000001        1.0773784580350725       0.44342044618625920       -4.6720619982048053                0           0           0
          83           1   1.1011640000000000        1.4542567965412809       0.81757297284050967       -5.6063844844156572                0           0           0
          84           1   1.4763390000000001        2.1770630121964016       0.88763251138484023       -4.5378896724158118                0           0           0
          85           1  0.85063500000000003        2.9574433474518678       0.18812940773821119       -4.8876776539242464                0           0           0
          86           1  0.83979999999999999        3.6441403803940151       0.20969658737144314       -5.5434292006501185                0           0           0
          87           1   1.1119710000000000        4.4784961804114332       0.66422764992269467       -5.0017485491890286                0           0           0
          88           1  0.92940100000000003       -5.4562735493057444        1.9595792239940275       -5.1011945041935753                0           0           0
          89           1  0.98624599999999996       -4.6160130517336881        2.3570405291544638       -5.6292380260104151                0           0           0
          90           1  0.88377099999999997       -3.8567177320653410        1.4239616273376434       -5.5098878934210056                0           0           0
          91           1   1.4289920000000000       -4.4192018769598214        1.7668657927710196       -4.5671431844087289                0           0           0
          92           1   1.2863240000000000       -2.6712320944072840        1.6168215632562006       -5.4873781973107265                0           0           0
          93           1  0.83280200000000004       -3.2635498951477611        1.8632707643075923       -4.5870764511270261                0           0           0
          94           1  0.91532000000000002       -1.5867237504696829        1.8510152888106726       -5.2059324762407027                0           0           0
          95           1   1.0549850000000001      -0.61723078398430964        1.4250938672567042       -5.3291116878125377                0           0           0
          96           1   1.4844250000000001       0.40536457333924059        2.1885995139837950       -5.4363863818215288                0           0           0
          97           1  0.86414400000000002        1.4751692797986120        1.8106770041582054       -5.3068048976669893                0           0           0
          98           1   1.3125690000000001        2.4419082845175488        2.2797164351311832       -5.1471807059964920                0           0           0
          99           1  0.82318199999999997        2.3806214702669592        1.2551404495108347       -5.6230383674764406                0           0           0
         100           1   1.2526790000000001        3.4006243750718479        1.2320128114690378       -5.3638053485467792                0           0           0
         101           1   1.3715560000000000        4.6941275881129911        1.9442401686944555       -5.2166407877049767                0           0           0
         102           1   1.1018300000000001       -5.2708186354439031        2.9220370076048550       -4.6593264381467856                0           0           0
         103           1   1.0932630000000001       -3.5684570185687732        2.4595644003403105       -5.3437170115874837                0           0           0
         104           1  0.91189900000000002       -4.1191506834299139        2.8850773969049346       -4.5128728838191527                0           0           0
         105           1  0.73728300000000002       -2.6129675350628796        2.6408954390653712       -5.2597902722931318                0           0           0
         106           1  0.79696199999999995       -3.3093735973702660        3.4004316246700874       -5.2523879010636580                0           0           0
         107           1   1.2884510000000000       -1.6761138022189845        2.9528583114735873       -4.9468349328553778                0           0           0
         108           1  0.90628100000000000      -0.72707385644408973        2.3964001177550731       -4.7446368060629718                0           0           0
         109           1   1.2439519999999999      -0.38475024910020483        3.3586600950578340       -5.1981837641012936                0           0           0
         110           1  0.85372000000000003      -0.78192545493282051        2.4262280397740135       -5.7201378160810794                0           0           0
         111           1  0.79320299999999999       0.61260383280031849        3.3016431039685283       -5.5991207890176868                0           0           0
         112           1  0.83657099999999995        1.1739371127790497        2.4683250320248842       -4.6477608387467662                0           0           0
         113           1  0.79898800000000003        2.9602044233172258        3.1893422620123726       -4.7871262058736637                0           0           0
         114           1  0.97961900000000002        3.5949895589445351        2.3818724472566029       -4.7895766692284703                0           0           0
         115           1  0.80490099999999998        4.3398197399027580        2.9622106434889766       -5.0322966134761291                0           0           0
         116           1  0.76785300000000001        5.2769623021015022        2.8440382714213790       -5.1961210891959499                0           0           0
         117           1  0.78729899999999997       -4.9542343970839280        4.4931137068333591       -5.4873894327758892                0           0           0
         118           1  0.86933700000000003       -5.5489641358437414        3.5900919724425080       -5.4419451364880009                0           0           0
         119           1   1.4795579999999999       -4.3749628976256885        3.5608113514814423       -5.4168133714962359                0           0           0
         120           1   1.1486650000000000       -3.1813992427213909        4.3772192281803690       -5.0849502743784036                0           0           0
         121           1  0.75789499999999999       -2.3866218783666673        3.7414082537043676       -4.9424992700878976                0           0           0
         122           1  0.80026200000000003       -2.3180750854198280        4.4464289767494343       -5.6158355029002207                0           0           0
         123           1  0.84546600000000005       -1.5242375213667980        3.9567486490669541       -5.5390502934608028                0           0           0
         124           1  0.74727200000000005       -1.2036317062101816        3.8566533536490670       -4.6785686199741479                0           0           0
         125           1   1.1842509999999999       -1.9056702852819356        4.6005715952265547       -4.6942090745676373                0           0           0
         126           1   1.0372950000000001      -0.65580168754472989        4.5165093557846134       -5.4057737202777432                0           0           0
         127           1  0.75573400000000002       0.26217219581868090        4.1609696467121360       -5.1397857825552444                0           0           0
         128           1  0.90554000000000001        1.2382198186936320        4.0858062762850640       -5.6177629093178902                0           0           0
         129           1  0.73019400000000001        1.8099552573655311        4.2134639194161103       -4.6967918941432618                0           0           0
         130           1   1.1501790000000001        2.1510957974099307        3.5475400477129835       -5.3298431895984750                0           0           0
         131           1   1.0361840000000000        3.0258812306781238        4.2484650827796422       -5.0794630630204569                0           0           0
         132           1  0.78415599999999996        3.9308469095454051        3.9053920094729406       -5.1495884167600945                0           0           0
         133           1  0.84128000000000003        4.6838585196851561        4.1793399084270391       -4.6300754658935253                0           0           0
         134           1   1.3047489999999999        4.8103651850651712        3.6865335276296669       -5.6359009250978165                0           0           0
         135           1  0.87163800000000002       -5.3690978501967512        5.3259238625031280       -5.1920008009376142                0           0           0
         136           1   1.1479109999999999       -4.3673900173338547        4.7486515392032373       -4.6950330110829581                0           0           0
         137           1  0.85967499999999997       -3.6119156723416337        5.3390759070125000       -5.1027046482233889                0           0           0
         138           1  0.80051799999999995       -4.4937705377326527        5.3875802100278989       -5.5092221300883688                0           0           0
         139           1   1.1004989999999999       -2.5961848897660253        5.4354992303580314       -5.4085612591343981                0           0           0
         140           1  0.95438500000000004       -1.5527278742809889        5.6928060554484130       -5.1990118905971405                0           0           0
         141           1  0.98720399999999997      -0.34783404069311974        5.6406370095009635       -5.5598682138020159                0           0           0
         142           1  0.86126300000000000       0.21902355912033489        5.0161507383246864       -4.8439279562360626                0           0           0
         143           1  0.79245800000000000        1.0871014899653852        4.6990931166815439       -4.8031531601506714                0           0           0
         144           1   1.2686580000000001        1.9929483185372119        4.9424099104687400       -5.3325477834587147                0           0           0
         145           1  0.86478800000000000        2.9194398254029483        5.2683468550925081       -4.8634174302574475                0           0           0
         146           1  0.73688299999999995        3.1234465072149789        5.0153748119422232       -5.7120859982878498                0           0           0
         147           1   1.4304490000000001        3.9921524034126001        4.9920454952216744       -4.9136045888632793                0           0           0
         148           1  0.76117100000000004        5.1015257327100780        5.0312640026410840       -5.0214507620158964                0           0           0
         149           1  0.81904200000000005        4.6136002378255849        4.8789099198331378        5.6736520018850864                0           0           0
         150           1  0.74355499999999997       -5.1815844739685240       -5.2291546570670295       -3.7840479559814133                0           0           0
         151           1  0.76271500000000003       -3.9049946912869835       -5.0065042299394209       -3.9552445442799966                0           0           0
         152           1  0.76898400000000000       -2.4930035162924664       -4.8066227068026386       -4.0485441198709795                0           0           0
         153           1   1.0236600000000000       -3.1907313940985977       -5.5629858446371854       -3.5249172100711319                0           0           0
         154           1  0.73077700000000001       -1.4152293096948183       -5.0724513243600500       -3.6708663998920255                0           0           0
         155           1   1.1202880000000000       -2.0379802620175513       -5.6803553018690236       -4.1907662553687999                0           0           0
         156           1  0.76807899999999996       -1.2237506727844485       -5.1521398356720205       -4.4883747671442844                0           0           0
         157           1   1.3321630000000000      -0.40877970294047561       -4.9717111254028641       -3.6592815522965982                0           0           0
         158           1  0.80179999999999996       0.66585689635038747       -4.9134828878182919       -3.9420456963187913                0           0           0
         159           1  0.94373200000000002        1.6191460142249232       -5.0664859627093710       -4.0331107287999393                0           0           0
         160           1  0.95481799999999994        3.1731701617434815       -4.6782184077635627       -4.5103789828777900                0           0           0
         161           1   1.4699640000000000        2.7740001340674212       -5.6453243709952199       -3.8617635515323361                0           0           0
         162           1   1.3309860000000000        4.2472522329575462       -5.0919281802074279       -4.0894100399821856                0           0           0
         163           1   1.1672389999999999        5.5607500930585676       -5.4973444164908480       -4.4550668030944465                0           0           0
         164           1  0.96901499999999996       -5.4396508407457587       -4.3965787975981616       -4.4220407475134849                0           0           0
         165           1   1.1382319999999999       -4.6491880272433335       -4.3857365021751447       -3.6058888916698626                0           0           0
         166           1   1.0295930000000000       -5.6937193627185874       -3.7186278202242633       -3.5804607386161256                0           0           0
         167           1  0.75638000000000005       -4.1062738264796028       -3.5508380188977484       -3.8326593329139396                0           0           0
         168           1   1.4976440000000000       -3.2676403826208453       -4.1955419767643596       -3.6162856458732948                0           0           0
         169           1   1.3677140000000001       -1.8383530815582474       -3.9926663974873442       -4.2002807260326804                0           0           0
         170           1  0.87362600000000001      -0.83059874264352018       -4.3109466173662794       -4.4416376879305162                0           0           0
         171           1  0.77448300000000003      -0.48189399484307494       -3.9092614313886349       -3.6625215152756727                0           0           0
         172           1   1.1426689999999999       0.18423086808198708       -4.1441560439878726       -4.4629751553181567                0           0           0
         173           1   1.6053649999999999        1.3746215581801593       -3.8516372395331020       -3.7898728149718952                0           0           0
         174           1  0.81254700000000002        2.3838954663154137       -4.4098815861204956       -4.0224634289283800                0           0           0
         175           1   1.5251770000000000        2.8666696519873103       -3.4529958356129486       -4.4889483301784256                0           0           0
         176           1  0.90739599999999998        3.8969425687838033       -3.9451225843737729       -4.1696412781233727                0           0           0
         177           1  0.91723800000000000        3.4662999071395024       -3.3072581204532003       -3.4526630314358981                0           0           0
         178           1  0.98055700000000001        4.9388654708830781       -4.1437848740497012       -4.2256137362727966                0           0           0
         179           1   1.4378010000000001       -4.9383968731734313       -3.2494105417547638       -4.4100609791492040                0           0           0