LAMMPS data file via write_data, version 17 Nov 2016, timestep = 0
      
  1500 atoms
      
1 atom types
  -5.7235712129999996        5.7235712129999996      xlo xhi
  -5.7235712129999996        5.7235712129999996      ylo yhi
  -5.7235712129999996        5.7235712129999996      zlo zhi
Masses
      
1 1
      
Pair Coeffs # lj/poly
      
                               1 1.0 1.0 2.025 1.25 0.2
      
Atoms # charge
      
           1           1  0.82965299999999997       -5.5431743030383336       -4.8799742983254450       -5.2650865831455107                0           0           0
           2           1   1.5413479999999999       -4.5756128540819310       -5.2695249356410159       -4.7551162534639362                0           0           0
           3           1  0.86062700000000003       -3.7972568087552894       -4.7709161751123617       -5.4907982704329958                0           0           0
           4           1   1.2325940000000000       -3.1681422614283656       -5.2180846454263223       -4.6545471666930771                0           0           0
           5           1  0.92110899999999996       -2.0772603422822673       -4.8994941968209504       -4.9077555082753674                0           0           0
           6           1   1.5043869999999999       -1.0365523847389611       -4.7505033811526953       -5.4717717633281779                0           0           0
           7           1  0.88103100000000001      -0.20320343036957489       -5.1777598105532778       -4.7447697755508766                0           0           0
           8           1  0.92227999999999999       0.28176449844003759       -4.6659176862341329       -5.4678465512163932                0           0           0
           9           1   1.5129459999999999       0.93637828065455420       -5.5123053303194816       -4.9721869575093081                0           0           0
          10           1  0.87097899999999995        2.1196639717805326       -5.5729336626366592       -4.7683828975048055                0           0           0
          11           1  0.82823300000000000        1.9423326032816854       -5.3903445669586070       -5.6924173192140293                0           0           0
          12           1   1.3333429999999999        3.0412888923850918       -5.3170846518161294       -5.5230118342301289                0           0           0
          13           1  0.81986499999999995        4.1299786334480117       -5.3019448751586209       -5.3184985509909541                0           0           0
          14           1  0.74748000000000003        3.5276555942251200       -5.5412886475145982       -4.6376926125509721                0           0           0
          15           1  0.86770400000000003        4.9245867662021361       -4.8171377945589775       -4.9776810074064253                0           0           0
          16           1  0.73948999999999998        4.6924285770298351       -5.6959363653735231       -4.7953605542017614                0           0           0
          17           1   1.1174949999999999       -4.8005203528934581       -4.1483763021328892       -5.5212746753410480                0           0           0
          18           1   1.0167780000000000       -3.9982321679432715       -4.1415232303169844       -4.6468799665984104                0           0           0
          19           1   1.0699300000000000       -2.8262422924201078       -4.0585307767464656       -4.8353602454393734                0           0           0
          20           1  0.76943799999999996       -1.9482667136359915       -4.0824991154854855       -5.3135966263393941                0           0           0
          21           1   1.0829869999999999      -0.25333578508681853       -3.7643854718261163       -5.6908727667804557                0           0           0
          22           1   1.3859269999999999       0.96731802501120789       -3.6930047750099551       -5.3563277932169537                0           0           0
          23           1  0.77240699999999995        1.1068411777627398       -4.4987006741426647       -4.6396204302016182                0           0           0
          24           1   1.1917739999999999        2.0333468340621961       -4.5358403095114488       -5.0010485561844318                0           0           0
          25           1  0.76583000000000001        1.8046178392858812       -3.5385798413922056       -4.7334451420712096                0           0           0
          26           1  0.97774899999999998        2.1622866723007910       -3.5652836203948826       -5.6197978290364379                0           0           0
          27           1  0.83108000000000004        2.9390193000122711       -4.1960213901055852       -5.3727005907296448                0           0           0
          28           1   1.2215430000000000        3.9934412166141886       -4.2707182815642204       -5.2296553662947582                0           0           0
          29           1   1.3806490000000000        5.3911250796735963       -3.8292213126758177       -5.3260747502991528                0           0           0
          30           1   1.0400879999999999       -5.1678756948145903       -2.9702778902954683       -5.6269200877990988                0           0           0
          31           1  0.77126099999999997       -4.2835843133018683       -3.2881056248088338       -5.2656725509829245                0           0           0
          32           1  0.92384800000000000       -4.2809179301049731       -2.3926543924057628       -4.9342368683763986                0           0           0
          33           1  0.88862900000000000       -2.3159895677575109       -3.1291803073330491       -4.8801304131717957                0           0           0
          34           1  0.86158199999999996       -3.0684718297978262       -2.8360674735284159       -5.5350827462656289                0           0           0
          35           1   1.1209890000000000       -1.3308785831753278       -3.3127523543243380       -5.3227541271672854                0           0           0
          36           1   1.2420370000000001      -0.20815571166536984       -2.9452692483658365       -4.7332570126014684                0           0           0
          37           1  0.88274100000000000       -1.0384951082698946       -2.3136715057797468       -5.1652170955003047                0           0           0
          38           1   1.0668899999999999       0.69545851005532811       -2.4525373606205463       -5.4184049259602727                0           0           0
          39           1   1.1892499999999999        1.8668587783580337       -2.5793058148704362       -5.0920509957244322                0           0           0
          40           1  0.78319600000000000        2.8142869877780399       -2.8158842874436742       -5.3730536794708206                0           0           0
          41           1  0.77194799999999997        2.7159210280333053       -2.2969121758532376       -4.5401663159461920                0           0           0
          42           1  0.74873199999999995        3.6784562548933799       -3.3166632460451670       -5.1739785514278456                0           0           0
          43           1   1.0263439999999999        4.5229656065078903       -3.2062731479931306       -4.7456672101414181                0           0           0
          44           1  0.81308199999999997        4.5552436402430381       -2.4866409444971325       -5.4131042304719044                0           0           0
          45           1   1.1161060000000000        3.6390368643613371       -2.3699458535079474       -4.9673447997137794                0           0           0
          46           1   1.2125560000000000        5.4711953495105163       -2.4268915155260418       -4.9142665599504038                0           0           0
          47           1  0.74192100000000005       -5.0033521922883057       -2.0572712219222717       -5.3650256076884917                0           0           0
          48           1  0.91800800000000005       -4.1474019716360608       -1.5548082961321423       -5.5049601735131057                0           0           0
          49           1  0.83222700000000005       -3.2328977320130683       -1.9486262832366417       -5.2796084851972571                0           0           0
          50           1   1.0095200000000000       -2.5303481475273295       -1.2193332906445740       -4.8853003788190792                0           0           0
          51           1   1.4893410000000000       -2.1363973502772460       -2.1868796340316830       -5.5814631589289014                0           0           0
          52           1   1.2179240000000000       -1.3401896273548655       -1.3147374568223622       -4.7738576125118293                0           0           0
          53           1   1.0644769999999999      -0.21727924307942459       -1.6496729451438856       -5.2250586059297524                0           0           0
          54           1   1.3780330000000001       0.96882003951566897       -1.2767643931657631       -5.0305380625721563                0           0           0
          55           1   1.0451729999999999        2.1525288653500123       -1.4332907515952664       -4.8229884830650560                0           0           0
          56           1  0.79520100000000005        3.6401899695267090       -1.3774982447488027       -5.2500783475851236                0           0           0
          57           1   1.0204660000000001        4.4256210174580399       -1.5991762000335088       -4.5996968540444900                0           0           0
          58           1  0.80856499999999998        5.3296072355342421       -1.3836237533458746       -5.0126189616089549                0           0           0
          59           1   1.3538969999999999       -5.0619669264516416       -1.0820243062618582       -4.9892111890928348                0           0           0
          60           1  0.75854699999999997       -4.0650173166476193      -0.68080260420764027       -5.1872289931087412                0           0           0
          61           1  0.73175199999999996       -2.4361047517858752      -0.42788396063882495       -5.3686240702605978                0           0           0
          62           1   1.0328729999999999       -3.2279109658794893      -0.31817181204987044       -4.8629170286877939                0           0           0
          63           1  0.75083299999999997       -1.6077829458062123      -0.29381974991824222       -5.2703774098838032                0           0           0
          64           1  0.82179500000000005       -1.8915663918843082       -1.0729930084301609       -5.6618728063360368                0           0           0
          65           1  0.90665300000000004      -1.03564821992900846E-002 -0.65410792421744457       -4.8704865925647214                0           0           0
          66           1  0.88653700000000002      -0.93771698234367484      -0.29967161061410863       -4.6199353219426431                0           0           0
          67           1   1.1960150000000001       0.61284824830122986      -5.76296943117364791E-002  -5.5114464578802025                0           0           0
          68           1   1.0855290000000000        1.7592994160447342      -0.25986018030758107       -4.9771160025629655                0           0           0
          69           1  0.97821599999999997        2.8731282883013733      -0.73971310531941992       -5.2589346185281496                0           0           0
          70           1   1.4363210000000000        3.8762381540279307      -0.47161712385087728       -4.6872464292139959                0           0           0
          71           1   1.1656560000000000        5.2158188443823086      -0.36060564872118483       -4.9104091986540590                0           0           0
          72           1   1.0241950000000000       -5.1394414328215952       5.62177127766405604E-002  -5.4442803991739366                0           0           0
          73           1  0.83424600000000004       -4.6103933916006694       0.76687431141092688       -4.9672327185942668                0           0           0
          74           1   1.2242780000000000       -5.7191806465337587       0.90154636911112718       -4.8414498630797773                0           0           0
          75           1   1.2615920000000000       -3.9370928314216429       0.26538363022315092       -5.6907632423262857                0           0           0
          76           1  0.96946900000000003       -2.7368634798434210       0.42763201788245375       -5.5139119667977923                0           0           0
          77           1   1.0105480000000000       -3.3851680918361180       0.86110908976118594       -4.7527741932989160                0           0           0
          78           1   1.1696240000000000       -1.6395266173269256       0.71853663239921950       -5.3745135836418072                0           0           0
          79           1  0.91265600000000002       -2.3038736721234252        1.0202806534348854       -4.5823971939119597                0           0           0
          80           1  0.77751099999999995      -0.66686058598215503       0.45648378454716276       -5.3583093922976515                0           0           0
          81           1  0.88239800000000002       0.43166786729954953        1.0325586359546914       -5.3374621790597168                0           0           0
          82           1  0.79924200000000001        1.0761916355025205       0.44256247452910102       -4.6744706086910348                0           0           0
          83           1   1.1011640000000000        1.4523241121032324       0.81802604864537631       -5.6087211317464645                0           0           0
          84           1   1.4763390000000001        2.1764497368648712       0.88572961195920286       -4.5399241453764168                0           0           0
          85           1  0.85063500000000003        2.9549449860325971       0.18256091288731735       -4.8864446406035693                0           0           0
          86           1  0.83979999999999999        3.6380874988274456       0.21023900472855050       -5.5427324897813408                0           0           0
          87           1   1.1119710000000000        4.4761673813050500       0.66121323705803192       -5.0043903734093140                0           0           0
          88           1  0.92940100000000003       -5.4543623334959008        1.9595912578786088       -5.1006080167853964                0           0           0
          89           1  0.98624599999999996       -4.6148245786691069        2.3580831384852097       -5.6292244380414864                0           0           0
          90           1  0.88377099999999997       -3.8558824129740170        1.4270148130814020       -5.5112987618361000                0           0           0
          91           1   1.4289920000000000       -4.4186668004546545        1.7668172943570379       -4.5683429451514765                0           0           0
          92           1   1.2863240000000000       -2.6689412680984828        1.6211963210106397       -5.4910039422209991                0           0           0
          93           1  0.83280200000000004       -3.2641781622578723        1.8649192288783727       -4.5906177236179770                0           0           0
          94           1  0.91532000000000002       -1.5863092045624789        1.8544894237721969       -5.2082323751340462                0           0           0
          95           1   1.0549850000000001      -0.61832938915695923        1.4268439801427570       -5.3306952042369069                0           0           0
          96           1   1.4844250000000001       0.40614198700432613        2.1842168246355635       -5.4341361087296756                0           0           0
          97           1  0.86414400000000002        1.4772184771284014        1.8079629232711136       -5.3071793983997875                0           0           0
          98           1   1.3125690000000001        2.4432192360964962        2.2772530188120061       -5.1471932000373872                0           0           0
          99           1  0.82318199999999997        2.3786036846656593        1.2566543602119262       -5.6283403067729463                0           0           0
         100           1   1.2526790000000001        3.3984139902156603        1.2328440170609332       -5.3659375191140430                0           0           0
         101           1   1.3715560000000000        4.6936282869245414        1.9443814270834769       -5.2173516793787789                0           0           0
         102           1   1.1018300000000001       -5.2705437740305223        2.9240405579489028       -4.6620534209409925                0           0           0
         103           1   1.0932630000000001       -3.5664688378582650        2.4634992798506641       -5.3461305274931643                0           0           0
         104           1  0.91189900000000002       -4.1194545754760892        2.8857611250790924       -4.5153070702972382                0           0           0
         105           1  0.73728300000000002       -2.6102713764387966        2.6439148307443450       -5.2628018196698330                0           0           0
         106           1  0.79696199999999995       -3.3071471804369659        3.4056266345903961       -5.2530941282271177                0           0           0
         107           1   1.2884510000000000       -1.6746486360269452        2.9558522634783539       -4.9501699198152922                0           0           0
         108           1  0.90628100000000000      -0.72778192082005067        2.3946714169388610       -4.7424151803544179                0           0           0
         109           1   1.2439519999999999      -0.38376319309435480        3.3560358673118316       -5.1881496710752977                0           0           0
         110           1  0.85372000000000003      -0.79031775897163126        2.4287312563057046       -5.7180784811253806                0           0           0
         111           1  0.79320299999999999       0.61014662571430467        3.2929293756426770       -5.5598963946897166                0           0           0
         112           1  0.83657099999999995        1.1773630411143969        2.4636114528051980       -4.6490566784780114                0           0           0
         113           1  0.79898800000000003        2.9593136516899570        3.1879950465684885       -4.7817102684768154                0           0           0
         114           1  0.97961900000000002        3.5964416850947849        2.3803714877015576       -4.7888754717507354                0           0           0
         115           1  0.80490099999999998        4.3396054248157050        2.9633275218903012       -5.0337626383949550                0           0           0
         116           1  0.76785300000000001        5.2746130583246043        2.8447855959707962       -5.1973251202293138                0           0           0
         117           1  0.78729899999999997       -4.9500541853995568        4.4952842580063415       -5.4861305081207874                0           0           0
         118           1  0.86933700000000003       -5.5464143450456316        3.5941382171428060       -5.4431843096165675                0           0           0
         119           1   1.4795579999999999       -4.3730922209784584        3.5626308118318555       -5.4192093766584417                0           0           0
         120           1   1.1486650000000000       -3.1756451076753418        4.3840552149639809       -5.0895114775222350                0           0           0
         121           1  0.75789499999999999       -2.3867617643144583        3.7422697610221434       -4.9423342939804895                0           0           0
         122           1  0.80026200000000003       -2.3088634758285149        4.4553950789927228       -5.6257094499834652                0           0           0
         123           1  0.84546600000000005       -1.5178145802224314        3.9659688779286650       -5.5355901365666353                0           0           0
         124           1  0.74727200000000005       -1.2036271305140795        3.8603498288897740       -4.6731680616656375                0           0           0
         125           1   1.1842509999999999       -1.9097440971565196        4.6035387092428852       -4.6955863010530621                0           0           0
         126           1   1.0372950000000001      -0.64081965990962697        4.5097025093134722       -5.4088195007573256                0           0           0
         127           1  0.75573400000000002       0.27891805452029850        4.1575864165608678       -5.1151524283061294                0           0           0
         128           1  0.90554000000000001        1.2357342058278542        4.0940295968924474       -5.5711472166306617                0           0           0
         129           1  0.73019400000000001        1.8145595940385304        4.2091239432475884       -4.6915894424127051                0           0           0
         130           1   1.1501790000000001        2.1527129577296424        3.5466846481275329       -5.3249187699861498                0           0           0
         131           1   1.0361840000000000        3.0267342377761945        4.2492704081431878       -5.0720085865187929                0           0           0
         132           1  0.78415599999999996        3.9331252285177065        3.9110193986183912       -5.1474307782783875                0           0           0
         133           1  0.84128000000000003        4.6862586414457468        4.1840459109779680       -4.6282179452294034                0           0           0
         134           1   1.3047489999999999        4.8126270796479336        3.6908279479807184       -5.6334016657403980                0           0           0
         135           1  0.87163800000000002       -5.3612567818540287        5.3265983409917581       -5.1947774985451431                0           0           0
         136           1   1.1479109999999999       -4.3597530057270903        4.7499459832300879       -4.6951310616635080                0           0           0
         137           1  0.85967499999999997       -3.6066638213605851        5.3509814934397095       -5.0973079951323568                0           0           0
         138           1  0.80051799999999995       -4.4866985413675193        5.3893086755405921       -5.5098810985247644                0           0           0
         139           1   1.1004989999999999       -2.5921887672654749        5.4380282599609284       -5.4166535681347421                0           0           0
         140           1  0.95438500000000004       -1.5507140211742554        5.6767654793530049       -5.1902798349653239                0           0           0
         141           1  0.98720399999999997      -0.34824210317007687        5.6284306314883725       -5.5620355574163067                0           0           0
         142           1  0.86126300000000000       0.22932064034896538        5.0212554984711488       -4.8327600546168776                0           0           0
         143           1  0.79245800000000000        1.0900792372920263        4.6913120262406522       -4.7726507964177856                0           0           0
         144           1   1.2686580000000001        1.9902075931862333        4.9474398434025701       -5.3151682302368810                0           0           0
         145           1  0.86478800000000000        2.9195820376323827        5.2722301025903278       -4.8573838686596691                0           0           0
         146           1  0.73688299999999995        3.1473083802026256        5.0116051255506715       -5.6958415088552803                0           0           0
         147           1   1.4304490000000001        3.9926851778822421        4.9952366937197556       -4.9152054274708821                0           0           0
         148           1  0.76117100000000004        5.1023767484085578        5.0294597465287438       -5.0213549067526495                0           0           0
         149           1  0.81904200000000005        4.6159466732780494        4.8811214900250075        5.6733618689273619                0           0           0
         150           1  0.74355499999999997       -5.1774584431134576       -5.2287454320518609       -3.7839404613852570                0           0           0
         151           1  0.76271500000000003       -3.8941340072619441       -5.0043369325848017       -3.9561588714686637                0           0           0
         152           1  0.76898400000000000       -2.4465098492119601       -4.7721103313052566       -4.0553353826141212                0           0           0
         153           1   1.0236600000000000       -3.1880588009415813       -5.5598725071211854       -3.5157447710908234                0           0           0
         154           1  0.73077700000000001       -1.4926460205544281       -4.9054222227965276       -3.7597840495363832                0           0           0
         155           1   1.1202880000000000       -2.0152384869540136       -5.6673541279404631       -4.1828487797036225                0           0           0
         156           1  0.76807899999999996       -1.1707525793975897       -5.1564609174448890       -4.4924170770515337                0           0           0
         157           1   1.3321630000000000      -0.46936787390997470       -4.9644825526924672       -3.6783021282394501                0           0           0
         158           1  0.80179999999999996       0.67467425828820726       -4.9353056456189082       -3.9313809975314813                0           0           0
         159           1  0.94373200000000002        1.6290663059340753       -5.0587047876490256       -4.0278500217917443                0           0           0
         160           1  0.95481799999999994        3.1799263643990301       -4.6731912126561630       -4.5030410445446583                0           0           0
         161           1   1.4699640000000000        2.7761461898954813       -5.6447438407975978       -3.8547395705465313                0           0           0
         162           1   1.3309860000000000        4.2526317043510300       -5.0893787369101524       -4.0876314418436177                0           0           0
         163           1   1.1672389999999999        5.5702182452295368       -5.5036732112835560       -4.4558488240634437                0           0           0
         164           1  0.96901499999999996       -5.4417054463155630       -4.4025660239374886       -4.4196583786131587                0           0           0
         165           1   1.1382319999999999       -4.6415640170232866       -4.3887856924990869       -3.6100791388842790                0           0           0
         166           1   1.0295930000000000       -5.6941576730500056       -3.7207205618411252       -3.5823003700452003                0           0           0
         167           1  0.75638000000000005       -4.0897037165896402       -3.5648070181701423       -3.8331416180504401                0           0           0
         168           1   1.4976440000000000       -3.2452171634305076       -4.2012899779686190       -3.6136323087994193                0           0           0
         169           1   1.3677140000000001       -1.7360551333077070       -4.0006269005424624       -4.2359573973713962                0           0           0
         170           1  0.87362600000000001      -0.74454482734906779       -3.9565212286538101       -4.7328303049756109                0           0           0
         171           1  0.77448300000000003      -0.48506827370895778       -3.9206258957681435       -3.6421963111702911                0           0           0
         172           1   1.1426689999999999       0.20342549036156665       -4.1800909517543481       -4.4310016755695596                0           0           0
         173           1   1.6053649999999999        1.3766972870148413       -3.8443584925657106       -3.7790224703992199                0           0           0
         174           1  0.81254700000000002        2.3863111332728533       -4.4065512056774141       -4.0190940972656906                0           0           0
         175           1   1.5251770000000000        2.8593545288454294       -3.4493339404087018       -4.4869487739085585                0           0           0
         176           1  0.90739599999999998        3.8982825921845894       -3.9338924101168695       -4.1692593611979980                0           0           0
         177           1  0.91723800000000000        3.4627502558401950       -3.3051933397821189       -3.4502433025360544                0           0           0
         178           1  0.98055700000000001        4.9354943209434925       -4.1336294909540419       -4.2288182718531750                0           0           0
         179           1   1.4378010000000001       -4.9219425172207565       -3.2642267531256595       -4.4097788564161675                0           0           0