LAMMPS data file via write_data, version 17 Nov 2016, timestep = 0
      
  1500 atoms
      
1 atom types
  -5.7235712129999996        5.7235712129999996      xlo xhi
  -5.7235712129999996        5.7235712129999996      ylo yhi
  -5.7235712129999996        5.7235712129999996      zlo zhi
Masses
      
1 1
      
Pair Coeffs # lj/poly
      
                               1 1.0 1.0 2.025 1.25 0.2
      
Atoms # charge
      
           1           1  0.82965299999999997       -5.5436985710020963       -4.8798074732917849       -5.2656682152908498                0           0           0
           2           1   1.5413479999999999       -4.5761795656717847       -5.2690312389491725       -4.7556662362620274                0           0           0
           3           1  0.86062700000000003       -3.7998169573007559       -4.7696020665667689       -5.4916493765132541                0           0           0
           4           1   1.2325940000000000       -3.1687779688072872       -5.2182273413514171       -4.6563136471225111                0           0           0
           5           1  0.92110899999999996       -2.0796953157092233       -4.9004801337623949       -4.9114341234833603                0           0           0
           6           1   1.5043869999999999       -1.0370196801661367       -4.7434100077193779       -5.4674703760001613                0           0           0
           7           1  0.88103100000000001      -0.20256852453901697       -5.1873303012774237       -4.7527205975907538                0           0           0
           8           1  0.92227999999999999       0.28309120694191936       -4.6646812242152196       -5.4676480959108593                0           0           0
           9           1   1.5129459999999999       0.93842688494874604       -5.5112840512053856       -4.9713652557224197                0           0           0
          10           1  0.87097899999999995        2.1206716201351306       -5.5728480176969697       -4.7683152730276017                0           0           0
          11           1  0.82823300000000000        1.9423681259500967       -5.3897454309404207       -5.6924498654422768                0           0           0
          12           1   1.3333429999999999        3.0414289529148846       -5.3174715086388744       -5.5238600929467836                0           0           0
          13           1  0.81986499999999995        4.1299743574703314       -5.3015952196454146       -5.3194082667482343                0           0           0
          14           1  0.74748000000000003        3.5275378223615057       -5.5410431448897262       -4.6380201378971142                0           0           0
          15           1  0.86770400000000003        4.9244380737179956       -4.8169024160660534       -4.9781500769947131                0           0           0
          16           1  0.73948999999999998        4.6920691235942584       -5.6954503111744836       -4.7956107057084205                0           0           0
          17           1   1.1174949999999999       -4.8013538930248894       -4.1479477949103130       -5.5220343495900082                0           0           0
          18           1   1.0167780000000000       -3.9997309666194867       -4.1405711460346550       -4.6472161325169736                0           0           0
          19           1   1.0699300000000000       -2.8284769445643070       -4.0577788198225706       -4.8354590023093627                0           0           0
          20           1  0.76943799999999996       -1.9515581066184780       -4.0808030914714077       -5.3133408558565067                0           0           0
          21           1   1.0829869999999999      -0.25161830392524820       -3.7627468435601101       -5.6903942640618252                0           0           0
          22           1   1.3859269999999999       0.96865275878041768       -3.6921635675129454       -5.3573069238001381                0           0           0
          23           1  0.77240699999999995        1.1086524126106916       -4.4973473225331748       -4.6402245089694629                0           0           0
          24           1   1.1917739999999999        2.0345286955942026       -4.5355966072776761       -5.0019943308862347                0           0           0
          25           1  0.76583000000000001        1.8056696881362768       -3.5384895153079770       -4.7343026840027971                0           0           0
          26           1  0.97774899999999998        2.1626478463917413       -3.5651839028774672       -5.6212498524535501                0           0           0
          27           1  0.83108000000000004        2.9396031772778333       -4.1959337853192915       -5.3738963121760595                0           0           0
          28           1   1.2215430000000000        3.9932633358926317       -4.2703723872230448       -5.2298548233631115                0           0           0
          29           1   1.3806490000000000        5.3907120538978681       -3.8289326076197279       -5.3268012311399904                0           0           0
          30           1   1.0400879999999999       -5.1687078703918639       -2.9693555548407118       -5.6276780283896484                0           0           0
          31           1  0.77126099999999997       -4.2855272346963593       -3.2863733737939209       -5.2661424845664007                0           0           0
          32           1  0.92384800000000000       -4.2812672426452822       -2.3913642510597017       -4.9347051601951604                0           0           0
          33           1  0.88862900000000000       -2.3166099530370352       -3.1290858079094108       -4.8805224118787809                0           0           0
          34           1  0.86158199999999996       -3.0690726781564579       -2.8355442740631243       -5.5355646591609915                0           0           0
          35           1   1.1209890000000000       -1.3312982123781589       -3.3127464069263022       -5.3236681008195266                0           0           0
          36           1   1.2420370000000001      -0.20795268652818866       -2.9437901584318320       -4.7339760853025021                0           0           0
          37           1  0.88274100000000000       -1.0385614507130150       -2.3137150085766853       -5.1657781408779542                0           0           0
          38           1   1.0668899999999999       0.69575753149622255       -2.4526675522466168       -5.4203230977809023                0           0           0
          39           1   1.1892499999999999        1.8672389626388934       -2.5792835871754156       -5.0932304545050799                0           0           0
          40           1  0.78319600000000000        2.8150844712051910       -2.8163460677673431       -5.3745253123953454                0           0           0
          41           1  0.77194799999999997        2.7159281432253017       -2.2964926790102291       -4.5405444621888549                0           0           0
          42           1  0.74873199999999995        3.6780373489518059       -3.3157898657963325       -5.1762045961207681                0           0           0
          43           1   1.0263439999999999        4.5221618407656177       -3.2065990356374043       -4.7467120338454869                0           0           0
          44           1  0.81308199999999997        4.5547940581178548       -2.4874724421525594       -5.4145104332165133                0           0           0
          45           1   1.1161060000000000        3.6393814251763192       -2.3692654807233913       -4.9676481254851872                0           0           0
          46           1   1.2125560000000000        5.4701441708163721       -2.4261945620094787       -4.9149675629473784                0           0           0
          47           1  0.74192100000000005       -5.0046272655683426       -2.0564687974601692       -5.3643930284034438                0           0           0
          48           1  0.91800800000000005       -4.1474254799584367       -1.5537100929562557       -5.5052561471149604                0           0           0
          49           1  0.83222700000000005       -3.2330416667674773       -1.9481725332505930       -5.2800062831658003                0           0           0
          50           1   1.0095200000000000       -2.5299673806308904       -1.2190978807876283       -4.8855625398319429                0           0           0
          51           1   1.4893410000000000       -2.1363533525541194       -2.1870914964310977       -5.5818750166923481                0           0           0
          52           1   1.2179240000000000       -1.3397808356386802       -1.3141268744898715       -4.7744576327487849                0           0           0
          53           1   1.0644769999999999      -0.21705268561249813       -1.6502789723279534       -5.2262162493946871                0           0           0
          54           1   1.3780330000000001       0.96917075723647095       -1.2772453116484748       -5.0316200818208241                0           0           0
          55           1   1.0451729999999999        2.1527317431354662       -1.4335894510340337       -4.8231938543729065                0           0           0
          56           1  0.79520100000000005        3.6402058405215136       -1.3767843813964777       -5.2505178753332338                0           0           0
          57           1   1.0204660000000001        4.4261653149949876       -1.5979230549390842       -4.6003696121011632                0           0           0
          58           1  0.80856499999999998        5.3301873001783271       -1.3827904589773290       -5.0140850726980153                0           0           0
          59           1   1.3538969999999999       -5.0615051399079372       -1.0807409527743745       -4.9893163547459043                0           0           0
          60           1  0.75854699999999997       -4.0648905021702966      -0.67977153304634719       -5.1874921621054675                0           0           0
          61           1  0.73175199999999996       -2.4360052982665610      -0.42791408596512870       -5.3689954542794069                0           0           0
          62           1   1.0328729999999999       -3.2275786397024651      -0.31785537516903961       -4.8630083409055533                0           0           0
          63           1  0.75083299999999997       -1.6077689526317984      -0.29503134933646979       -5.2702176737414108                0           0           0
          64           1  0.82179500000000005       -1.8917900036461872       -1.0735620623456041       -5.6625897535677074                0           0           0
          65           1  0.90665300000000004      -1.07243755217094616E-002 -0.65492569497721043       -4.8706306075340189                0           0           0
          66           1  0.88653700000000002      -0.93755728530024296      -0.29879545895702986       -4.6201341470780948                0           0           0
          67           1   1.1960150000000001       0.61314740106455723      -5.83171080802413755E-002  -5.5104237504936382                0           0           0
          68           1   1.0855290000000000        1.7596312399332712      -0.26008272836021629       -4.9766001054039251                0           0           0
          69           1  0.97821599999999997        2.8730473148316982      -0.73956937777678355       -5.2585093642782192                0           0           0
          70           1   1.4363210000000000        3.8764288655753933      -0.47098286664055511       -4.6873181287290073                0           0           0
          71           1   1.1656560000000000        5.2160523714434266      -0.35990898534606774       -4.9104463678495875                0           0           0
          72           1   1.0241950000000000       -5.1399132300863917       5.70035776287189933E-002  -5.4448377443608429                0           0           0
          73           1  0.83424600000000004       -4.6106018647802598       0.76723616287178853       -4.9673846293066353                0           0           0
          74           1   1.2242780000000000       -5.7192583433272617       0.90227233989510403       -4.8412905609567902                0           0           0
          75           1   1.2615920000000000       -3.9371208245531886       0.26576342347572446       -5.6908675822997576                0           0           0
          76           1  0.96946900000000003       -2.7368632350856625       0.42742757810067022       -5.5144483559812123                0           0           0
          77           1   1.0105480000000000       -3.3841587356536675       0.86118767091584392       -4.7527828347436589                0           0           0
          78           1   1.1696240000000000       -1.6393996794774583       0.71735030092105934       -5.3751346614508675                0           0           0
          79           1  0.91265600000000002       -2.3022590820645035        1.0212672675590406       -4.5823774635958925                0           0           0
          80           1  0.77751099999999995      -0.66697336184950817       0.45542776340869029       -5.3567308206673605                0           0           0
          81           1  0.88239800000000002       0.43233279268938496        1.0318805332759924       -5.3363019687360520                0           0           0
          82           1  0.79924200000000001        1.0767478096440088       0.44287287796356534       -4.6737157917540548                0           0           0
          83           1   1.1011640000000000        1.4528747312535470       0.81716660507482963       -5.6073943265610469                0           0           0
          84           1   1.4763390000000001        2.1766529405222315       0.88567256302031350       -4.5383621875732150                0           0           0
          85           1  0.85063500000000003        2.9554238121095011       0.18322473419747975       -4.8861922916556813                0           0           0
          86           1  0.83979999999999999        3.6384754198365421       0.21028964195753552       -5.5427834733800809                0           0           0
          87           1   1.1119710000000000        4.4764310229395861       0.66187662742965969       -5.0040799985671596                0           0           0
          88           1  0.92940100000000003       -5.4548439452261901        1.9602282060249809       -5.1007149032048753                0           0           0
          89           1  0.98624599999999996       -4.6150470164847182        2.3583497648492546       -5.6294004164311344                0           0           0
          90           1  0.88377099999999997       -3.8558471222480959        1.4267970382268045       -5.5111605869260973                0           0           0
          91           1   1.4289920000000000       -4.4189513365308786        1.7672780846090275       -4.5686114485923754                0           0           0
          92           1   1.2863240000000000       -2.6690045500896828        1.6209657657750887       -5.4912047188415460                0           0           0
          93           1  0.83280200000000004       -3.2641777099545077        1.8648995479950932       -4.5908683090768934                0           0           0
          94           1  0.91532000000000002       -1.5864757104457867        1.8535108827591777       -5.2075033220497513                0           0           0
          95           1   1.0549850000000001      -0.61839207104418836        1.4260713822697220       -5.3294698153970863                0           0           0
          96           1   1.4844250000000001       0.40667440348027473        2.1833287179952094       -5.4320884087502002                0           0           0
          97           1  0.86414400000000002        1.4779485517288959        1.8071046885064721       -5.3054113303436061                0           0           0
          98           1   1.3125690000000001        2.4431701028597832        2.2781298577974312       -5.1457168170514382                0           0           0
          99           1  0.82318199999999997        2.3786412216439210        1.2563949451016994       -5.6257920416941225                0           0           0
         100           1   1.2526790000000001        3.3985159300225227        1.2326243315848107       -5.3644172242181805                0           0           0
         101           1   1.3715560000000000        4.6932258306230903        1.9450531676307721       -5.2171933590986113                0           0           0
         102           1   1.1018300000000001       -5.2707097462532424        2.9245970246111614       -4.6621778441532484                0           0           0
         103           1   1.0932630000000001       -3.5665212574216967        2.4635358024359171       -5.3462066651228390                0           0           0
         104           1  0.91189900000000002       -4.1195783854221180        2.8862384179150649       -4.5158843593408475                0           0           0
         105           1  0.73728300000000002       -2.6101897295037366        2.6436799486148654       -5.2621588264009080                0           0           0
         106           1  0.79696199999999995       -3.3082404557243055        3.4060337839181081       -5.2533343712590419                0           0           0
         107           1   1.2884510000000000       -1.6741317936588569        2.9550954416735582       -4.9490997920115003                0           0           0
         108           1  0.90628100000000000      -0.72710094968735373        2.3944042513934800       -4.7408868305180238                0           0           0
         109           1   1.2439519999999999      -0.38305886574551895        3.3544241328700277       -5.1871667357684164                0           0           0
         110           1  0.85372000000000003      -0.79115967269121334        2.4276393668261598       -5.7164437096313803                0           0           0
         111           1  0.79320299999999999       0.61019057366210649        3.2926977778704831       -5.5575089529161694                0           0           0
         112           1  0.83657099999999995        1.1784552586866042        2.4643902594005649       -4.6483942763830211                0           0           0
         113           1  0.79898800000000003        2.9587182021080505        3.1895215747226313       -4.7805770993996193                0           0           0
         114           1  0.97961900000000002        3.5961187867049986        2.3813785533923131       -4.7878097061666871                0           0           0
         115           1  0.80490099999999998        4.3393563782427886        2.9639794874719154       -5.0331166244147338                0           0           0
         116           1  0.76785300000000001        5.2745865519891399        2.8452870377331934       -5.1972433036601240                0           0           0
         117           1  0.78729899999999997       -4.9500452866272564        4.4958664249352864       -5.4861626626777715                0           0           0
         118           1  0.86933700000000003       -5.5468830189199823        3.5944022615381286       -5.4434927859782851                0           0           0
         119           1   1.4795579999999999       -4.3736412460149268        3.5628830318478961       -5.4199861117047643                0           0           0
         120           1   1.1486650000000000       -3.1720597012698866        4.3844850829497890       -5.0923593261257203                0           0           0
         121           1  0.75789499999999999       -2.3848696269933258        3.7419449206680486       -4.9409688510466134                0           0           0
         122           1  0.80026200000000003       -2.3046793943822235        4.4593518236685359       -5.6306471802132432                0           0           0
         123           1  0.84546600000000005       -1.5179615923044985        3.9647630152426938       -5.5349779216622332                0           0           0
         124           1  0.74727200000000005       -1.2021297104612643        3.8606602292669905       -4.6727848274129631                0           0           0
         125           1   1.1842509999999999       -1.9088314332592984        4.6041685886853614       -4.6976494304294070                0           0           0
         126           1   1.0372950000000001      -0.63993168666868616        4.5057841439010389       -5.4088712824338678                0           0           0
         127           1  0.75573400000000002       0.28018809875267880        4.1572321657670486       -5.1148094394970389                0           0           0
         128           1  0.90554000000000001        1.2334658049902014        4.0957205512861350       -5.5693385262604904                0           0           0
         129           1  0.73019400000000001        1.8157813704496695        4.2098955463001584       -4.6888042645837418                0           0           0
         130           1   1.1501790000000001        2.1514928613896700        3.5477063398769797       -5.3233747165147314                0           0           0
         131           1   1.0361840000000000        3.0265208112593651        4.2493022896612374       -5.0712961593493908                0           0           0
         132           1  0.78415599999999996        3.9330049127141962        3.9114618342407503       -5.1472252770968367                0           0           0
         133           1  0.84128000000000003        4.6865068652144526        4.1846783464619772       -4.6283314358593497                0           0           0
         134           1   1.3047489999999999        4.8121470372590363        3.6909651664327860       -5.6335292615594366                0           0           0
         135           1  0.87163800000000002       -5.3611835449873295        5.3271553194848789       -5.1958344049291920                0           0           0
         136           1   1.1479109999999999       -4.3582571808457118        4.7498186518386110       -4.6959265706703990                0           0           0
         137           1  0.85967499999999997       -3.6038676626214272        5.3496850687039252       -5.0985987173762339                0           0           0
         138           1  0.80051799999999995       -4.4860746136016587        5.3895373834727565       -5.5099522810600252                0           0           0
         139           1   1.1004989999999999       -2.5878568534186610        5.4412809814438816       -5.4195089638491556                0           0           0
         140           1  0.95438500000000004       -1.5451184949475101        5.6761448248797350       -5.1875895709502418                0           0           0
         141           1  0.98720399999999997      -0.37645501372903123        5.6255721604523288       -5.5812513100952508                0           0           0
         142           1  0.86126300000000000       0.23346752093071022        5.0206866461560988       -4.8295306646506839                0           0           0
         143           1  0.79245800000000000        1.0925885081208371        4.6911500719223440       -4.7691475359809976                0           0           0
         144           1   1.2686580000000001        1.9898629310030520        4.9472725637548436       -5.3144379151259047                0           0           0
         145           1  0.86478800000000000        2.9195606320457959        5.2720690860661481       -4.8574218999213121                0           0           0
         146           1  0.73688299999999995        3.1462964287981485        5.0120903771479224       -5.6962436122151567                0           0           0
         147           1   1.4304490000000001        3.9925582834531603        4.9954894917325223       -4.9151945524981393                0           0           0
         148           1  0.76117100000000004        5.1022075270997203        5.0298363954816239       -5.0214671544269436                0           0           0
         149           1  0.81904200000000005        4.6156090980606308        4.8808682953107052        5.6733336610853442                0           0           0
         150           1  0.74355499999999997       -5.1772311249486478       -5.2293347106731218       -3.7841517503510249                0           0           0
         151           1  0.76271500000000003       -3.8943448780775878       -5.0038378930737828       -3.9572395587016524                0           0           0
         152           1  0.76898400000000000       -2.4469989537852217       -4.7717770855601218       -4.0576754136478783                0           0           0
         153           1   1.0236600000000000       -3.1878116875877769       -5.5587041934415922       -3.5172969710440798                0           0           0
         154           1  0.73077700000000001       -1.4924899491232129       -4.9040599530250351       -3.7626632193145033                0           0           0
         155           1   1.1202880000000000       -2.0140196497589318       -5.6664045653655863       -4.1838620936857449                0           0           0
         156           1  0.76807899999999996       -1.1681395234907184       -5.1610086859903657       -4.4927038220689699                0           0           0
         157           1   1.3321630000000000      -0.46862054590717062       -4.9657264893242958       -3.6830629098178802                0           0           0
         158           1  0.80179999999999996       0.67550463484145595       -4.9361011311188747       -3.9325453303452633                0           0           0
         159           1  0.94373200000000002        1.6299391419418541       -5.0578301204612659       -4.0292413750777110                0           0           0
         160           1  0.95481799999999994        3.1794370931497173       -4.6734211171856455       -4.5034241552914578                0           0           0
         161           1   1.4699640000000000        2.7766026810688196       -5.6458961277887152       -3.8542944193791771                0           0           0
         162           1   1.3309860000000000        4.2524548029793507       -5.0887511605187763       -4.0877934215738891                0           0           0
         163           1   1.1672389999999999        5.5701559452343279       -5.5036034356579577       -4.4564250562382357                0           0           0
         164           1  0.96901499999999996       -5.4419790799304044       -4.4018583660335269       -4.4204779080337708                0           0           0
         165           1   1.1382319999999999       -4.6420539221456112       -4.3884295289935897       -3.6107725022492909                0           0           0
         166           1   1.0295930000000000       -5.6944426615294157       -3.7198501754229829       -3.5829260865133543                0           0           0
         167           1  0.75638000000000005       -4.0902873527598143       -3.5643317404524955       -3.8337381451178985                0           0           0
         168           1   1.4976440000000000       -3.2455882245281442       -4.2010793813823391       -3.6145064238983138                0           0           0
         169           1   1.3677140000000001       -1.7375851834586746       -3.9991445392260525       -4.2372972927671793                0           0           0
         170           1  0.87362600000000001      -0.74363711334735250       -3.9507992950989417       -4.7290703783325547                0           0           0
         171           1  0.77448300000000003      -0.48399885463931014       -3.9219352972095209       -3.6455988878879944                0           0           0
         172           1   1.1426689999999999       0.20424677302282213       -4.1818771659855765       -4.4338269404665844                0           0           0
         173           1   1.6053649999999999        1.3770196525925318       -3.8430031503769388       -3.7797635689484226                0           0           0
         174           1  0.81254700000000002        2.3864133437509967       -4.4050730463751799       -4.0197575119797255                0           0           0
         175           1   1.5251770000000000        2.8600124586298037       -3.4489586114290693       -4.4879889991375688                0           0           0
         176           1  0.90739599999999998        3.8979415781604008       -3.9339875558449586       -4.1694067313983263                0           0           0
         177           1  0.91723800000000000        3.4624973162910599       -3.3052544931100960       -3.4508393953737437                0           0           0
         178           1  0.98055700000000001        4.9353468885970209       -4.1332511634939344       -4.2293751899962917                0           0           0
         179           1   1.4378010000000001       -4.9227212278523327       -3.2630644905452146       -4.4102368467084272                0           0           0