LAMMPS data file via write_data, version 17 Nov 2016, timestep = 0
      
  1500 atoms
      
1 atom types
  -5.7235712129999996        5.7235712129999996      xlo xhi
  -5.7235712129999996        5.7235712129999996      ylo yhi
  -5.7235712129999996        5.7235712129999996      zlo zhi
Masses
      
1 1
      
Pair Coeffs # lj/poly
      
                               1 1.0 1.0 2.025 1.25 0.2
      
Atoms # charge
      
           1           1  0.82965299999999997       -5.5504397630813314       -4.8795530602355583       -5.2673266684318838                0           0           0
           2           1   1.5413479999999999       -4.5827587419535387       -5.2699474119728142       -4.7590274063231552                0           0           0
           3           1  0.86062700000000003       -3.8067289089830600       -4.7612391141820511       -5.4911480179456333                0           0           0
           4           1   1.2325940000000000       -3.1807979669434840       -5.2242314058373296       -4.6604711869638002                0           0           0
           5           1  0.92110899999999996       -2.0875486431746588       -4.8917581691374208       -4.8996804180489857                0           0           0
           6           1   1.5043869999999999       -1.0436512184994511       -4.7208090470131809       -5.4670008405977946                0           0           0
           7           1  0.88103100000000001      -0.20764942904008166       -5.1693034803025650       -4.7410971265524102                0           0           0
           8           1  0.92227999999999999       0.29024962750713268       -4.6673362528865567       -5.4659822762803785                0           0           0
           9           1   1.5129459999999999       0.93413729042837179       -5.5209210217232982       -4.9754069533832324                0           0           0
          10           1  0.87097899999999995        2.1115654876589751       -5.5787445041556554       -4.7673737691303284                0           0           0
          11           1  0.82823300000000000        1.9325325008905194       -5.3961281810782626       -5.6930811018860021                0           0           0
          12           1   1.3333429999999999        3.0259205651337506       -5.3272712484423845       -5.5307611935167555                0           0           0
          13           1  0.81986499999999995        4.1183859150790010       -5.3073492528091437       -5.3223852779681700                0           0           0
          14           1  0.74748000000000003        3.5222533190931564       -5.5389124228175062       -4.6437701894289738                0           0           0
          15           1  0.86770400000000003        4.9114257858903656       -4.8148656860798003       -4.9846714208623872                0           0           0
          16           1  0.73948999999999998        4.6865606958819885       -5.6938963736505794       -4.7987488019799001                0           0           0
          17           1   1.1174949999999999       -4.8095340438908778       -4.1467953837087865       -5.5250369297255002                0           0           0
          18           1   1.0167780000000000       -4.0259630857561595       -4.1319433331771620       -4.6457188606136048                0           0           0
          19           1   1.0699300000000000       -2.8727145706575898       -4.0592050908360386       -4.8552576347792646                0           0           0
          20           1  0.76943799999999996       -1.9747363281937078       -4.0775197577570337       -5.3004625942571693                0           0           0
          21           1   1.0829869999999999      -0.23749982344326082       -3.7573208604014949       -5.6613083731620408                0           0           0
          22           1   1.3859269999999999       0.97895381985602636       -3.6856182304468983       -5.3557973119619708                0           0           0
          23           1  0.77240699999999995        1.0836990806988931       -4.5002839552749858       -4.6456983049572163                0           0           0
          24           1   1.1917739999999999        2.0230222630999553       -4.5390635115493208       -4.9935747987452981                0           0           0
          25           1  0.76583000000000001        1.8108818430557818       -3.5349691584978999       -4.7303948584644901                0           0           0
          26           1  0.97774899999999998        2.1631350198108539       -3.5634882257044680       -5.6174927043535181                0           0           0
          27           1  0.83108000000000004        2.9236581407357427       -4.1988597330699964       -5.3763539428699687                0           0           0
          28           1   1.2215430000000000        3.9743079230070268       -4.2757136837123673       -5.2456561397347805                0           0           0
          29           1   1.3806490000000000        5.3926552947075539       -3.8318229077118966       -5.3302792858098327                0           0           0
          30           1   1.0400879999999999       -5.1894767785264699       -2.9398147956682257       -5.6164965592733873                0           0           0
          31           1  0.77126099999999997       -4.3023994025492502       -3.2795870937625717       -5.2741131371003771                0           0           0
          32           1  0.92384800000000000       -4.2851628624647500       -2.3835992619354993       -4.9354900000097635                0           0           0
          33           1  0.88862900000000000       -2.3282135116091061       -3.1327888184472426       -4.8721171431823276                0           0           0
          34           1  0.86158199999999996       -3.0747768316811390       -2.8337640309560350       -5.5373229636340779                0           0           0
          35           1   1.1209890000000000       -1.3095086807845604       -3.3556053932149892       -5.2625592788448339                0           0           0
          36           1   1.2420370000000001      -0.19939500349517214       -2.9265954836063814       -4.7195003987882682                0           0           0
          37           1  0.88274100000000000       -1.0377051138916054       -2.3288645402480892       -5.1666798717027280                0           0           0
          38           1   1.0668899999999999       0.70837616713359353       -2.4485430872762008       -5.4138460368970129                0           0           0
          39           1   1.1892499999999999        1.8832747485459889       -2.5764565246266264       -5.0867138236581120                0           0           0
          40           1  0.78319600000000000        2.8393875864039906       -2.8133499330762355       -5.3697934557632934                0           0           0
          41           1  0.77194799999999997        2.7368503671764106       -2.2967041574427545       -4.5346673101905370                0           0           0
          42           1  0.74873199999999995        3.6596858780085775       -3.2993931398973264       -5.1969930509499385                0           0           0
          43           1   1.0263439999999999        4.5020540815979988       -3.2550366511744842       -4.7754979834176110                0           0           0
          44           1  0.81308199999999997        4.5401030841140368       -2.5191415841337270       -5.4363341787431150                0           0           0
          45           1   1.1161060000000000        3.6621452868909969       -2.3465090510214370       -4.9665654467396791                0           0           0
          46           1   1.2125560000000000        5.4049540305826262       -2.4142230501702429       -4.8865157154134433                0           0           0
          47           1  0.74192100000000005       -4.9954886076958109       -2.0295189464102688       -5.3591139564872385                0           0           0
          48           1  0.91800800000000005       -4.1447552713810953       -1.5469115367613506       -5.5026038155347523                0           0           0
          49           1  0.83222700000000005       -3.2272417760326686       -1.9463556766929178       -5.2759067340531791                0           0           0
          50           1   1.0095200000000000       -2.5251426134481814       -1.2212392904545766       -4.8883071274386358                0           0           0
          51           1   1.4893410000000000       -2.1331213992229716       -2.1926346020345342       -5.5788214170090829                0           0           0
          52           1   1.2179240000000000       -1.3367610321748602       -1.3198120873315462       -4.7707575810826528                0           0           0
          53           1   1.0644769999999999      -0.21335114296791513       -1.6544143217681322       -5.2160564915028234                0           0           0
          54           1   1.3780330000000001       0.97296975422665888       -1.2738421968649183       -5.0266571833523628                0           0           0
          55           1   1.0451729999999999        2.1567171067801887       -1.4277022168112863       -4.8216171965654819                0           0           0
          56           1  0.79520100000000005        3.6457612483641508       -1.3575162524467892       -5.2557327633741222                0           0           0
          57           1   1.0204660000000001        4.4608089301488327       -1.5461867664535056       -4.6120742308501583                0           0           0
          58           1  0.80856499999999998        5.3582700789327440       -1.3676089943505394       -5.0318406814823380                0           0           0
          59           1   1.3538969999999999       -5.0456281212068719       -1.0588522685747090       -4.9814611411056120                0           0           0
          60           1  0.75854699999999997       -4.0564862665272381      -0.67277101401375550       -5.1865256482546336                0           0           0
          61           1  0.73175199999999996       -2.4318797030394790      -0.42998415789930533       -5.3693863145470004                0           0           0
          62           1   1.0328729999999999       -3.2210559773055976      -0.31821958794413341       -4.8601773560546544                0           0           0
          63           1  0.75083299999999997       -1.6045904381692138      -0.29677806034289489       -5.2697478697891658                0           0           0
          64           1  0.82179500000000005       -1.8849961652680607       -1.0767178205420080       -5.6622012265223987                0           0           0
          65           1  0.90665300000000004      -8.21752605130221525E-003 -0.65536838393303753       -4.8666869852486911                0           0           0
          66           1  0.88653700000000002      -0.93531203307584843      -0.30007662760626008       -4.6184795927118980                0           0           0
          67           1   1.1960150000000001       0.61530770971901383      -5.83648518541055594E-002  -5.5078669076346225                0           0           0
          68           1   1.0855290000000000        1.7639547448881503      -0.25689472582069595       -4.9775134681399491                0           0           0
          69           1  0.97821599999999997        2.8748236656616957      -0.73237599707752299       -5.2575294412596731                0           0           0
          70           1   1.4363210000000000        3.8761955526674221      -0.45612055621402448       -4.6844139247528114                0           0           0
          71           1   1.1656560000000000        5.2207527575625203      -0.35268748634629343       -4.9019316535881874                0           0           0
          72           1   1.0241950000000000       -5.1443964278942396       6.46468160748758791E-002  -5.4497906442044846                0           0           0
          73           1  0.83424600000000004       -4.6105498005322243       0.76697519941581049       -4.9646718985201206                0           0           0
          74           1   1.2242780000000000       -5.7165156599373086       0.90632597870831777       -4.8359593896023476                0           0           0
          75           1   1.2615920000000000       -3.9355847661469783       0.26728017961979766       -5.6884439057976355                0           0           0
          76           1  0.96946900000000003       -2.7345727382146232       0.42480438682209787       -5.5146590310257011                0           0           0
          77           1   1.0105480000000000       -3.3793060904626557       0.85961344569611775       -4.7512460525986464                0           0           0
          78           1   1.1696240000000000       -1.6371046005668202       0.71508624944600641       -5.3753662295782316                0           0           0
          79           1  0.91265600000000002       -2.2957212740396895        1.0232648827217661       -4.5813588218023042                0           0           0
          80           1  0.77751099999999995      -0.66485999986705213       0.45328512052556302       -5.3550942421818064                0           0           0
          81           1  0.88239800000000002       0.43405916331253458        1.0341417543321771       -5.3351139784455981                0           0           0
          82           1  0.79924200000000001        1.0781592541636940       0.44392746248600279       -4.6715381023750258                0           0           0
          83           1   1.1011640000000000        1.4551960383954583       0.81751207369039225       -5.6058379281960651                0           0           0
          84           1   1.4763390000000001        2.1767675097865142       0.88851611465528979       -4.5364509270560713                0           0           0
          85           1  0.85063500000000003        2.9591321704534277       0.19322852713793104       -4.8892527359536357                0           0           0
          86           1  0.83979999999999999        3.6465118689798608       0.21302165080132340       -5.5455562473141704                0           0           0
          87           1   1.1119710000000000        4.4809767239741305       0.66774620016389008       -5.0000386493393805                0           0           0
          88           1  0.92940100000000003       -5.4561201225110079        1.9621514869680672       -5.0999003808272123                0           0           0
          89           1  0.98624599999999996       -4.6155718084900847        2.3585694562101764       -5.6273775279639562                0           0           0
          90           1  0.88377099999999997       -3.8552485398999208        1.4253489739996308       -5.5082922647953394                0           0           0
          91           1   1.4289920000000000       -4.4185673210034073        1.7675106798857589       -4.5651068534297083                0           0           0
          92           1   1.2863240000000000       -2.6705972300803644        1.6170360581401662       -5.4889032864702036                0           0           0
          93           1  0.83280200000000004       -3.2633795353423429        1.8629619450686494       -4.5904762515258222                0           0           0
          94           1  0.91532000000000002       -1.5857678776111976        1.8500842576154701       -5.2064324497984282                0           0           0
          95           1   1.0549850000000001      -0.61597600139598008        1.4249594174152440       -5.3290156443037748                0           0           0
          96           1   1.4844250000000001       0.40748362465307064        2.1874756429376507       -5.4362955045728798                0           0           0
          97           1  0.86414400000000002        1.4772633199229181        1.8099392184994114       -5.3047191245027845                0           0           0
          98           1   1.3125690000000001        2.4431002109117816        2.2807285923154463       -5.1460972439964099                0           0           0
          99           1  0.82318199999999997        2.3815044353128414        1.2558781528852805       -5.6206227353734066                0           0           0
         100           1   1.2526790000000001        3.4017029284759115        1.2338949282925160       -5.3613993618818689                0           0           0
         101           1   1.3715560000000000        4.6950706585789899        1.9462869676618197       -5.2157570961838537                0           0           0
         102           1   1.1018300000000001       -5.2697636737786047        2.9237014360757740       -4.6565171386704733                0           0           0
         103           1   1.0932630000000001       -3.5674788469724570        2.4620134816352692       -5.3437099183555823                0           0           0
         104           1  0.91189900000000002       -4.1197388361703595        2.8861056619565648       -4.5133774423831614                0           0           0
         105           1  0.73728300000000002       -2.6119405349011302        2.6407276407168716       -5.2588998310952961                0           0           0
         106           1  0.79696199999999995       -3.3096932697191366        3.4039926057797096       -5.2531502100777638                0           0           0
         107           1   1.2884510000000000       -1.6749146865408724        2.9529548797787442       -4.9474982897600697                0           0           0
         108           1  0.90628100000000000      -0.72547747856115130        2.3955043535334113       -4.7452451820223258                0           0           0
         109           1   1.2439519999999999      -0.38379559319092316        3.3536464910724533       -5.2012690701700643                0           0           0
         110           1  0.85372000000000003      -0.78179479930950357        2.4247122524515614       -5.7208269366928404                0           0           0
         111           1  0.79320299999999999       0.61363831334670138        3.3016689245678332       -5.5986857640361798                0           0           0
         112           1  0.83657099999999995        1.1753383034695180        2.4689921148620471       -4.6477425499616611                0           0           0
         113           1  0.79898800000000003        2.9603968192975127        3.1910223995398947       -4.7849354864265505                0           0           0
         114           1  0.97961900000000002        3.5956868425198074        2.3831637574402720       -4.7885090687946352                0           0           0
         115           1  0.80490099999999998        4.3407551793884664        2.9634237114643920       -5.0294767931939628                0           0           0
         116           1  0.76785300000000001        5.2792676972140935        2.8456439222008090       -5.1946427837069988                0           0           0
         117           1  0.78729899999999997       -4.9526687819765254        4.4957340488081385       -5.4855616486899903                0           0           0
         118           1  0.86933700000000003       -5.5492888919464107        3.5902715467679158       -5.4403933046722379                0           0           0
         119           1   1.4795579999999999       -4.3753673040837029        3.5626350652618317       -5.4167352858634281                0           0           0
         120           1   1.1486650000000000       -3.1798472250102492        4.3815635988388557       -5.0854576695891627                0           0           0
         121           1  0.75789499999999999       -2.3853328429779292        3.7428454988245452       -4.9454667571032074                0           0           0
         122           1  0.80026200000000003       -2.3180891549593086        4.4467000301081399       -5.6187242790072691                0           0           0
         123           1  0.84546600000000005       -1.5260457115888739        3.9546954869048641       -5.5394496421264767                0           0           0
         124           1  0.74727200000000005       -1.2008394986823205        3.8573074537489020       -4.6792054420846565                0           0           0
         125           1   1.1842509999999999       -1.9049790458867775        4.6013155059221873       -4.6982681751752695                0           0           0
         126           1   1.0372950000000001      -0.65422006412145972        4.5082474507644150       -5.4099764511408024                0           0           0
         127           1  0.75573400000000002       0.26349571438587205        4.1574338265097364       -5.1435183403504325                0           0           0
         128           1  0.90554000000000001        1.2385501873661058        4.0867596121516705       -5.6158695247365600                0           0           0
         129           1  0.73019400000000001        1.8124352601056044        4.2110293330145812       -4.6964482704569841                0           0           0
         130           1   1.1501790000000001        2.1515329273251123        3.5473860181255734       -5.3283375220440821                0           0           0
         131           1   1.0361840000000000        3.0245669641967119        4.2505920427863391       -5.0754652077117965                0           0           0
         132           1  0.78415599999999996        3.9307379316181432        3.9092458921372089       -5.1476061080360935                0           0           0
         133           1  0.84128000000000003        4.6842808740394855        4.1833420062309674       -4.6292077174842348                0           0           0
         134           1   1.3047489999999999        4.8099600892161778        3.6871809322943747       -5.6341586081093098                0           0           0
         135           1  0.87163800000000002       -5.3671021975022546        5.3264815099440028       -5.1968552542539204                0           0           0
         136           1   1.1479109999999999       -4.3637685734061353        4.7509735020723554       -4.6926224561716294                0           0           0
         137           1  0.85967499999999997       -3.6097075618154122        5.3442157324112944       -5.0998514857514072                0           0           0
         138           1  0.80051799999999995       -4.4917372138094249        5.3870016063673525       -5.5104376638132546                0           0           0
         139           1   1.1004989999999999       -2.5900837690765366        5.4390284417043286       -5.4123170838483095                0           0           0
         140           1  0.95438500000000004       -1.5405022662096597        5.6893538404951940       -5.1989221143235751                0           0           0
         141           1  0.98720399999999997      -0.35562857491333943        5.6368035007972104       -5.5596001318053325                0           0           0
         142           1  0.86126300000000000       0.22839292414444667        5.0123366509827285       -4.8424774448067023                0           0           0
         143           1  0.79245800000000000        1.0936102938921755        4.6985511052701643       -4.7908707585987038                0           0           0
         144           1   1.2686580000000001        1.9916516725339193        4.9450042951654307       -5.3287479118180112                0           0           0
         145           1  0.86478800000000000        2.9164553528266790        5.2712236603395226       -4.8569942477055523                0           0           0
         146           1  0.73688299999999995        3.1198758247756864        5.0175784106078982       -5.7064674359434626                0           0           0
         147           1   1.4304490000000001        3.9899406561999200        4.9956444615387401       -4.9109111305337878                0           0           0
         148           1  0.76117100000000004        5.1010332672388330        5.0322274180306792       -5.0204461344041809                0           0           0
         149           1  0.81904200000000005        4.6126868629292588        4.8787450616775736        5.6763069031184585                0           0           0
         150           1  0.74355499999999997       -5.1731952299160042       -5.2354380713016599       -3.7933510632741716                0           0           0
         151           1  0.76271500000000003       -3.9038080408163558       -5.0046127759914700       -3.9585742938963637                0           0           0
         152           1  0.76898400000000000       -2.4812734802761862       -4.8034422855489716       -4.0461903319699619                0           0           0
         153           1   1.0236600000000000       -3.1878600677190341       -5.5494317703454366       -3.5168123310426789                0           0           0
         154           1  0.73077700000000001       -1.4867041476965071       -4.8818248502170158       -3.7848005756863703                0           0           0
         155           1   1.1202880000000000       -2.0099960573402438       -5.6709058599891717       -4.1912190145627619                0           0           0
         156           1  0.76807899999999996       -1.1648289274304293       -5.1774388843107539       -4.5002824736404428                0           0           0
         157           1   1.3321630000000000      -0.45000825059965077       -4.9769046991387036       -3.6613188343132972                0           0           0
         158           1  0.80179999999999996       0.65390743835788179       -4.9240840708144757       -3.9450115649105837                0           0           0
         159           1  0.94373200000000002        1.6143805907975040       -5.0627464284288930       -4.0219650311321651                0           0           0
         160           1  0.95481799999999994        3.1725050865204700       -4.6745553713024943       -4.5090730167429260                0           0           0
         161           1   1.4699640000000000        2.7732257924584545       -5.6392021872224065       -3.8559298983396095                0           0           0
         162           1   1.3309860000000000        4.2481307519482954       -5.0881707222281891       -4.0905767231321608                0           0           0
         163           1   1.1672389999999999        5.5640429362168700       -5.5012545120171703       -4.4612741927496691                0           0           0
         164           1  0.96901499999999996       -5.4377964380682071       -4.3965076224652941       -4.4252134884291960                0           0           0
         165           1   1.1382319999999999       -4.6500504607560504       -4.3858800126278101       -3.6073096187938698                0           0           0
         166           1   1.0295930000000000       -5.6919739971476426       -3.7157251550804502       -3.5811354845246557                0           0           0
         167           1  0.75638000000000005       -4.1048406908386488       -3.5528555093799215       -3.8331442047391278                0           0           0
         168           1   1.4976440000000000       -3.2649542376803340       -4.1972982930757814       -3.6183015343191149                0           0           0
         169           1   1.3677140000000001       -1.8440309100358609       -3.9733438047442813       -4.1981728208722107                0           0           0
         170           1  0.87362600000000001      -0.84183643842787337       -4.3015634279877260       -4.4477016337704187                0           0           0
         171           1  0.77448300000000003      -0.48788622301462414       -3.9093869678899713       -3.6627251115226014                0           0           0
         172           1   1.1426689999999999       0.17706657179057927       -4.1523673207794296       -4.4558680112513667                0           0           0
         173           1   1.6053649999999999        1.3747282720846474       -3.8493841397410025       -3.7852261363542454                0           0           0
         174           1  0.81254700000000002        2.3843400150199248       -4.4110499992770196       -4.0155471829278016                0           0           0
         175           1   1.5251770000000000        2.8626394500913666       -3.4505654582165275       -4.4871330108323173                0           0           0
         176           1  0.90739599999999998        3.8963156478773211       -3.9396906172414887       -4.1785333027562430                0           0           0
         177           1  0.91723800000000000        3.4745372450521756       -3.2980500585299732       -3.4602617765460897                0           0           0
         178           1  0.98055700000000001        4.9413292757757130       -4.1397295520553108       -4.2282905792607464                0           0           0
         179           1   1.4378010000000001       -4.9344856822423599       -3.2502579662632902       -4.4136548274859440                0           0           0