LAMMPS data file via write_data, version 17 Nov 2016, timestep = 0
      
  1500 atoms
      
1 atom types
  -5.7235712129999996        5.7235712129999996      xlo xhi
  -5.7235712129999996        5.7235712129999996      ylo yhi
  -5.7235712129999996        5.7235712129999996      zlo zhi
Masses
      
1 1
      
Pair Coeffs # lj/poly
      
                               1 1.0 1.0 2.025 1.25 0.2
      
Atoms # charge
      
           1           1  0.82965299999999997       -5.5505648125789806       -4.8786406207656379       -5.2655084212336511                0           0           0
           2           1   1.5413479999999999       -4.5861513533685727       -5.2691288412366823       -4.7561917967154947                0           0           0
           3           1  0.86062700000000003       -3.8144520994060707       -4.7614714838655265       -5.4944880866917023                0           0           0
           4           1   1.2325940000000000       -3.1887644037458074       -5.2222305250344476       -4.6675105411826650                0           0           0
           5           1  0.92110899999999996       -2.0939761088441413       -4.8929029751708368       -4.8976663235518743                0           0           0
           6           1   1.5043869999999999       -1.0404394616946648       -4.7217281108282938       -5.4629117430650682                0           0           0
           7           1  0.88103100000000001      -0.19814573121449897       -5.1617215180808564       -4.7448633352606198                0           0           0
           8           1  0.92227999999999999       0.30064986706309949       -4.6625047383866800       -5.4688461637974752                0           0           0
           9           1   1.5129459999999999       0.93926853625627338       -5.5177112305154195       -4.9768304325121671                0           0           0
          10           1  0.87097899999999995        2.1196371979775845       -5.5731059693343763       -4.7693430110251649                0           0           0
          11           1  0.82823300000000000        1.9387520375906231       -5.3902961648431145       -5.6935737556767227                0           0           0
          12           1   1.3333429999999999        3.0361525173667872       -5.3192535068713198       -5.5254313877375498                0           0           0
          13           1  0.81986499999999995        4.1251804950619473       -5.3019394413683063       -5.3225081644176120                0           0           0
          14           1  0.74748000000000003        3.5272527464387320       -5.5417481136915292       -4.6414745781758464                0           0           0
          15           1  0.86770400000000003        4.9148760094987640       -4.8158305228611358       -4.9822810895668130                0           0           0
          16           1  0.73948999999999998        4.6879481022803038       -5.6955401122207974       -4.7983461265697027                0           0           0
          17           1   1.1174949999999999       -4.8100634470171997       -4.1476604614123920       -5.5287496055324432                0           0           0
          18           1   1.0167780000000000       -4.0282961990194277       -4.1293775150455767       -4.6477849430370819                0           0           0
          19           1   1.0699300000000000       -2.8725455529076527       -4.0574853255297638       -4.8538463503851164                0           0           0
          20           1  0.76943799999999996       -1.9739697460600758       -4.0804794527301276       -5.3008211440202508                0           0           0
          21           1   1.0829869999999999      -0.23416296026476680       -3.7567396020687083       -5.6612690800126577                0           0           0
          22           1   1.3859269999999999       0.98614996812273592       -3.6830732188398501       -5.3616743706254208                0           0           0
          23           1  0.77240699999999995        1.0893400201258743       -4.4965685649448313       -4.6506590737841726                0           0           0
          24           1   1.1917739999999999        2.0271802338097586       -4.5359799075110203       -4.9995535328797684                0           0           0
          25           1  0.76583000000000001        1.8170207973249557       -3.5358657038158774       -4.7333244886311485                0           0           0
          26           1  0.97774899999999998        2.1689752041203976       -3.5640233352690864       -5.6216096497000612                0           0           0
          27           1  0.83108000000000004        2.9310866293078881       -4.1982832718193261       -5.3773648242002388                0           0           0
          28           1   1.2215430000000000        3.9809862676983343       -4.2710175506213197       -5.2361513388872645                0           0           0
          29           1   1.3806490000000000        5.3898867028386288       -3.8311777178267881       -5.3273215919343144                0           0           0
          30           1   1.0400879999999999       -5.1853546584154255       -2.9551595704746445       -5.6220901175311218                0           0           0
          31           1  0.77126099999999997       -4.2990308369268444       -3.2827634226640972       -5.2674917310271798                0           0           0
          32           1  0.92384800000000000       -4.3004544072970106       -2.3796699381208466       -4.9368941242741720                0           0           0
          33           1  0.88862900000000000       -2.3254251055569544       -3.1361401778220053       -4.8739865180234059                0           0           0
          34           1  0.86158199999999996       -3.0709359424829477       -2.8360448610415423       -5.5399081064260800                0           0           0
          35           1   1.1209890000000000       -1.3081748040343735       -3.3586258680044385       -5.2634577103912976                0           0           0
          36           1   1.2420370000000001      -0.20081320345142206       -2.9248295867154845       -4.7203245502495790                0           0           0
          37           1  0.88274100000000000       -1.0392484114322178       -2.3303556375444785       -5.1678675688479636                0           0           0
          38           1   1.0668899999999999       0.70724036147017255       -2.4480809755327528       -5.4151779168531293                0           0           0
          39           1   1.1892499999999999        1.8824796826817689       -2.5776627603245372       -5.0905272409501157                0           0           0
          40           1  0.78319600000000000        2.8377757074884862       -2.8162162493653868       -5.3735811722031697                0           0           0
          41           1  0.77194799999999997        2.7302935762100731       -2.2986599148615356       -4.5324957760768818                0           0           0
          42           1  0.74873199999999995        3.6655382618737775       -3.2997890761674240       -5.1973867230114417                0           0           0
          43           1   1.0263439999999999        4.5042000881167468       -3.2450447677840231       -4.7633457369218206                0           0           0
          44           1  0.81308199999999997        4.5408285190629769       -2.5134248166635711       -5.4291009865987672                0           0           0
          45           1   1.1161060000000000        3.6565524636553413       -2.3526245744849201       -4.9586400236059944                0           0           0
          46           1   1.2125560000000000        5.4162838947406140       -2.4154793527163809       -4.8912443898509181                0           0           0
          47           1  0.74192100000000005       -5.0794704422594092       -2.0696282634206820       -5.2763059952992748                0           0           0
          48           1  0.91800800000000005       -4.1372619936664909       -1.5482186400681615       -5.5019632998593586                0           0           0
          49           1  0.83222700000000005       -3.2250751413417258       -1.9486710532965184       -5.2755616151729336                0           0           0
          50           1   1.0095200000000000       -2.5260129284402106       -1.2222037517226241       -4.8891254097407693                0           0           0
          51           1   1.4893410000000000       -2.1322483159555010       -2.1934254556136361       -5.5804551543797984                0           0           0
          52           1   1.2179240000000000       -1.3390986666858620       -1.3229082898721822       -4.7705648508077347                0           0           0
          53           1   1.0644769999999999      -0.21492844134410305       -1.6546178357296606       -5.2161984314662346                0           0           0
          54           1   1.3780330000000001       0.97262329595775210       -1.2739482915696243       -5.0283913882414293                0           0           0
          55           1   1.0451729999999999        2.1560767192475030       -1.4299250683078206       -4.8206257743452561                0           0           0
          56           1  0.79520100000000005        3.6428245165022020       -1.3658425253972792       -5.2493428627576826                0           0           0
          57           1   1.0204660000000001        4.4567928290185179       -1.5614397791776247       -4.6087040971079922                0           0           0
          58           1  0.80856499999999998        5.3531884385025865       -1.3702279363809140       -5.0299124129216874                0           0           0
          59           1   1.3538969999999999       -5.0459838837264863       -1.0709925957992183       -4.9841342020971098                0           0           0
          60           1  0.75854699999999997       -4.0574162593983107      -0.67481623707851224       -5.1863715601351288                0           0           0
          61           1  0.73175199999999996       -2.4321205169146052      -0.42938577211756623       -5.3693607710674645                0           0           0
          62           1   1.0328729999999999       -3.2224162904873062      -0.31881150486605669       -4.8610197629527070                0           0           0
          63           1  0.75083299999999997       -1.6047310558979992      -0.29309584387418219       -5.2721268577888720                0           0           0
          64           1  0.82179500000000005       -1.8848581813421417       -1.0758587906465111       -5.6619755345484144                0           0           0
          65           1  0.90665300000000004      -7.90312057938891144E-003 -0.65590212632059686       -4.8680934694332922                0           0           0
          66           1  0.88653700000000002      -0.93623540420027940      -0.30371621205408150       -4.6195338593169604                0           0           0
          67           1   1.1960150000000001       0.61364191113571387      -5.83434058258509580E-002  -5.5110456609318907                0           0           0
          68           1   1.0855290000000000        1.7624028692082394      -0.25757605871804667       -4.9777536723196079                0           0           0
          69           1  0.97821599999999997        2.8741156857121286      -0.73553333691584388       -5.2574297877526224                0           0           0
          70           1   1.4363210000000000        3.8755099089711109      -0.46244402168125198       -4.6849287319412447                0           0           0
          71           1   1.1656560000000000        5.2188722359855557      -0.35538841259272935       -4.9032181759247759                0           0           0
          72           1   1.0241950000000000       -5.1419161731584957       5.90523569071468302E-002  -5.4464600048395511                0           0           0
          73           1  0.83424600000000004       -4.6105847500552892       0.76656181618813335       -4.9665271073309567                0           0           0
          74           1   1.2242780000000000       -5.7179456410904379       0.90331129296144663       -4.8391073168546601                0           0           0
          75           1   1.2615920000000000       -3.9353646207525497       0.26624734401581840       -5.6895161051155458                0           0           0
          76           1  0.96946900000000003       -2.7348914203200412       0.42623326299877551       -5.5139328665902720                0           0           0
          77           1   1.0105480000000000       -3.3825884235744708       0.86145988280581776       -4.7527010413298800                0           0           0
          78           1   1.1696240000000000       -1.6384098507523301       0.71895764419570174       -5.3758208339195290                0           0           0
          79           1  0.91265600000000002       -2.3006373587359046        1.0221250837456806       -4.5824995262349342                0           0           0
          80           1  0.77751099999999995      -0.66660947637389611       0.45414456209844900       -5.3586415241282133                0           0           0
          81           1  0.88239800000000002       0.43279399879362934        1.0330394439281019       -5.3370000217392661                0           0           0
          82           1  0.79924200000000001        1.0765557023411185       0.44206529213484735       -4.6743229710734626                0           0           0
          83           1   1.1011640000000000        1.4533713962365500       0.81769590821945926       -5.6083601252830784                0           0           0
          84           1   1.4763390000000001        2.1767329448234172       0.88754527219496904       -4.5391429105703684                0           0           0
          85           1  0.85063500000000003        2.9571760987462365       0.18870003826038850       -4.8884056040032586                0           0           0
          86           1  0.83979999999999999        3.6427872954738927       0.21068340285291409       -5.5446729926967029                0           0           0
          87           1   1.1119710000000000        4.4782727605773722       0.66473754132420648       -5.0026234172872952                0           0           0
          88           1  0.92940100000000003       -5.4558216091797354        1.9600317524324371       -5.1019690099165729                0           0           0
          89           1  0.98624599999999996       -4.6155049157829566        2.3575943077221986       -5.6301750959859120                0           0           0
          90           1  0.88377099999999997       -3.8559702731693468        1.4248006672123550       -5.5114017199099656                0           0           0
          91           1   1.4289920000000000       -4.4185395128458573        1.7676125661908744       -4.5688569767716452                0           0           0
          92           1   1.2863240000000000       -2.6675481535705421        1.6205362991436818       -5.4916708408611274                0           0           0
          93           1  0.83280200000000004       -3.2621627044183823        1.8643423838249555       -4.5901408676794908                0           0           0
          94           1  0.91532000000000002       -1.5849958604792231        1.8547078358910500       -5.2091533578376721                0           0           0
          95           1   1.0549850000000001      -0.61794737983751613        1.4254825428415527       -5.3308427220649337                0           0           0
          96           1   1.4844250000000001       0.40424066237800815        2.1856338338767207       -5.4315464102647990                0           0           0
          97           1  0.86414400000000002        1.4753581515247758        1.8083215343746550       -5.3076379446836190                0           0           0
          98           1   1.3125690000000001        2.4419868500803776        2.2770338938098220       -5.1470310639470611                0           0           0
          99           1  0.82318199999999997        2.3794717672421903        1.2563975670513514       -5.6282410099737801                0           0           0
         100           1   1.2526790000000001        3.3991048242671660        1.2323971632663993       -5.3644496212861101                0           0           0
         101           1   1.3715560000000000        4.6936467231191568        1.9457498681966214       -5.2178630811183790                0           0           0
         102           1   1.1018300000000001       -5.2703941102944611        2.9232152929478623       -4.6612363495622944                0           0           0
         103           1   1.0932630000000001       -3.5669776830912236        2.4601060488947670       -5.3464491351270755                0           0           0
         104           1  0.91189900000000002       -4.1180510881119341        2.8861463767441169       -4.5154657605058812                0           0           0
         105           1  0.73728300000000002       -2.6098130904556145        2.6428019444623843       -5.2636478792084951                0           0           0
         106           1  0.79696199999999995       -3.3097692329808321        3.4009505407502285       -5.2550362549724028                0           0           0
         107           1   1.2884510000000000       -1.6732998749643988        2.9555511866816619       -4.9503563188249711                0           0           0
         108           1  0.90628100000000000      -0.72623122307505472        2.3960573981642899       -4.7426896639919258                0           0           0
         109           1   1.2439519999999999      -0.38348165538254353        3.3618490726860131       -5.1850733177714279                0           0           0
         110           1  0.85372000000000003      -0.79203689948423150        2.4295161921677533       -5.7171080465178301                0           0           0
         111           1  0.79320299999999999       0.60911501098537801        3.2935855376530796       -5.5596336892937233                0           0           0
         112           1  0.83657099999999995        1.1760726223113185        2.4625907948603931       -4.6470689025284058                0           0           0
         113           1  0.79898800000000003        2.9584475172158005        3.1881998750589027       -4.7823570309922898                0           0           0
         114           1  0.97961900000000002        3.5952975781081395        2.3811702657446592       -4.7888262378933426                0           0           0
         115           1  0.80490099999999998        4.3391957919151114        2.9635470621490896       -5.0325534181228431                0           0           0
         116           1  0.76785300000000001        5.2768152366571179        2.8449308479408977       -5.1969291628106440                0           0           0
         117           1  0.78729899999999997       -4.9526154318225348        4.4941960125411988       -5.4874326172840417                0           0           0
         118           1  0.86933700000000003       -5.5476663620672770        3.5920398551220067       -5.4433950374677673                0           0           0
         119           1   1.4795579999999999       -4.3745120239140043        3.5614904896461503       -5.4196507892017509                0           0           0
         120           1   1.1486650000000000       -3.1739701677242422        4.3769239984330497       -5.0912693586196252                0           0           0
         121           1  0.75789499999999999       -2.3831407730466387        3.7411637076438247       -4.9414894154249502                0           0           0
         122           1  0.80026200000000003       -2.3066627500115220        4.4558838607435600       -5.6276602594351210                0           0           0
         123           1  0.84546600000000005       -1.5139411672418479        3.9686827675161354       -5.5374470045315212                0           0           0
         124           1  0.74727200000000005       -1.2034158834395621        3.8601423931136782       -4.6743851593108801                0           0           0
         125           1   1.1842509999999999       -1.9071884528179015        4.6026284438890563       -4.6962684173641289                0           0           0
         126           1   1.0372950000000001      -0.64084256420562902        4.5184499469568298       -5.4046288168114440                0           0           0
         127           1  0.75573400000000002       0.28112093057853293        4.1590348160870914       -5.1138399088913182                0           0           0
         128           1  0.90554000000000001        1.2325603209175400        4.0950600846305836       -5.5715079011556750                0           0           0
         129           1  0.73019400000000001        1.8120352047978399        4.2110606119111615       -4.6912125392653081                0           0           0
         130           1   1.1501790000000001        2.1507953504457582        3.5471572008444436       -5.3249490847630270                0           0           0
         131           1   1.0361840000000000        3.0259074379394146        4.2481212059983200       -5.0731678207653639                0           0           0
         132           1  0.78415599999999996        3.9321271465047047        3.9091984929319175       -5.1481890627912215                0           0           0
         133           1  0.84128000000000003        4.6847978210755485        4.1826588266512896       -4.6288281766786197                0           0           0
         134           1   1.3047489999999999        4.8116007884107184        3.6890214064062636       -5.6343716215628232                0           0           0
         135           1  0.87163800000000002       -5.3668815453113519        5.3268963930842883       -5.1934574007417478                0           0           0
         136           1   1.1479109999999999       -4.3635422475448831        4.7474502403771250       -4.6965273451342018                0           0           0
         137           1  0.85967499999999997       -3.6078499543717149        5.3376690062404144       -5.1034586901343806                0           0           0
         138           1  0.80051799999999995       -4.4912661222118331        5.3877599971000532       -5.5093765893811684                0           0           0
         139           1   1.1004989999999999       -2.5932982052739693        5.4353317390856670       -5.4130858162984001                0           0           0
         140           1  0.95438500000000004       -1.5556038702750330        5.6994301242422321       -5.1989732279839096                0           0           0
         141           1  0.98720399999999997      -0.35123158459782466        5.6404137091077384       -5.5629326950925844                0           0           0
         142           1  0.86126300000000000       0.21994733196391980        5.0197948286774672       -4.8326409319933425                0           0           0
         143           1  0.79245800000000000        1.0852478247210104        4.6934965892300617       -4.7760461323206993                0           0           0
         144           1   1.2686580000000001        1.9898452325091629        4.9464841000353896       -5.3171025021771037                0           0           0
         145           1  0.86478800000000000        2.9192012568690036        5.2711891871734284       -4.8587214721070175                0           0           0
         146           1  0.73688299999999995        3.1440547055239119        5.0099687403780813       -5.6976911873346783                0           0           0
         147           1   1.4304490000000001        3.9914972456278726        4.9935340588318944       -4.9159119516423715                0           0           0
         148           1  0.76117100000000004        5.1011120540827246        5.0303056064130924       -5.0219630038748919                0           0           0
         149           1  0.81904200000000005        4.6142041220395686        4.8793466703050470        5.6726495151367846                0           0           0
         150           1  0.74355499999999997       -5.1797782400528618       -5.2263124620526984       -3.7861888035721276                0           0           0
         151           1  0.76271500000000003       -3.9037203982444275       -5.0052577514740229       -3.9568159691563043                0           0           0
         152           1  0.76898400000000000       -2.4936258465948828       -4.8036252274878759       -4.0483901064651029                0           0           0
         153           1   1.0236600000000000       -3.1909474320095872       -5.5612607398948759       -3.5261280077928920                0           0           0
         154           1  0.73077700000000001       -1.4142939783540731       -5.0756489810158039       -3.6685790539711354                0           0           0
         155           1   1.1202880000000000       -2.0395227005856689       -5.6786285757438613       -4.1903132071856257                0           0           0
         156           1  0.76807899999999996       -1.2258273889496678       -5.1473538200492310       -4.4874624173844069                0           0           0
         157           1   1.3321630000000000      -0.40883743054930299       -4.9688509169392479       -3.6596356400813717                0           0           0
         158           1  0.80179999999999996       0.66624106908849612       -4.9133009951147741       -3.9423716449195272                0           0           0
         159           1  0.94373200000000002        1.6208844327014358       -5.0591579979105079       -4.0298339494335886                0           0           0
         160           1  0.95481799999999994        3.1766563406757946       -4.6754810432347034       -4.5054956640388326                0           0           0
         161           1   1.4699640000000000        2.7768124905144909       -5.6447007825403830       -3.8566291148615792                0           0           0
         162           1   1.3309860000000000        4.2503332545838841       -5.0904748909243045       -4.0879990064408736                0           0           0
         163           1   1.1672389999999999        5.5631672122654781       -5.4984809134500647       -4.4553172045388294                0           0           0
         164           1  0.96901499999999996       -5.4395154645143684       -4.3965752488384400       -4.4225695823643125                0           0           0
         165           1   1.1382319999999999       -4.6483138055310391       -4.3835241103196596       -3.6074118592042694                0           0           0
         166           1   1.0295930000000000       -5.6937768133376769       -3.7174727506761531       -3.5812653855609811                0           0           0
         167           1  0.75638000000000005       -4.1059477003948661       -3.5468056421398590       -3.8356068873436797                0           0           0
         168           1   1.4976440000000000       -3.2688088735341210       -4.1921910176376507       -3.6186730031136252                0           0           0
         169           1   1.3677140000000001       -1.8382506679269577       -3.9892539143860901       -4.2002868196094427                0           0           0
         170           1  0.87362600000000001      -0.82999950668703093       -4.3074119245194318       -4.4423971600522609                0           0           0
         171           1  0.77448300000000003      -0.48175735787984397       -3.9069607678250406       -3.6628359494877949                0           0           0
         172           1   1.1426689999999999       0.18570337766348199       -4.1429264785741875       -4.4627400663640371                0           0           0
         173           1   1.6053649999999999        1.3771567047560467       -3.8468907537533252       -3.7880995773842630                0           0           0
         174           1  0.81254700000000002        2.3856768429054096       -4.4074136519910514       -4.0205307899382312                0           0           0
         175           1   1.5251770000000000        2.8685849388779374       -3.4504392601177902       -4.4885867960471559                0           0           0
         176           1  0.90739599999999998        3.8987561348332704       -3.9419440451131198       -4.1677614988501377                0           0           0
         177           1  0.91723800000000000        3.4664190167817512       -3.3057768879809086       -3.4518339955113122                0           0           0
         178           1  0.98055700000000001        4.9394765916686936       -4.1414378723956569       -4.2262960743400830                0           0           0
         179           1   1.4378010000000001       -4.9394111160472480       -3.2479467009186109       -4.4112764988125086                0           0           0