LAMMPS data file via write_data, version 17 Nov 2016, timestep = 0
      
  1500 atoms
      
1 atom types
  -5.7235712129999996        5.7235712129999996      xlo xhi
  -5.7235712129999996        5.7235712129999996      ylo yhi
  -5.7235712129999996        5.7235712129999996      zlo zhi
Masses
      
1 1
      
Pair Coeffs # lj/poly
      
                               1 1.0 1.0 2.025 1.25 0.2
      
Atoms # charge
      
           1           1  0.82965299999999997       -5.5481359439135574       -4.8794576220890580       -5.2681333868154052                0           0           0
           2           1   1.5413479999999999       -4.5853252229972927       -5.2713664211673299       -4.7578547492743359                0           0           0
           3           1  0.86062700000000003       -3.8134803331604297       -4.7643125225893490       -5.4971121835734378                0           0           0
           4           1   1.2325940000000000       -3.1884565628398440       -5.2237459674541524       -4.6670745784256518                0           0           0
           5           1  0.92110899999999996       -2.0927034499763879       -4.8993289676308533       -4.9012633131428096                0           0           0
           6           1   1.5043869999999999       -1.0405971602663193       -4.7245003114402921       -5.4631932683610582                0           0           0
           7           1  0.88103100000000001      -0.19740557581769114       -5.1599338102436416       -4.7415191418408122                0           0           0
           8           1  0.92227999999999999       0.29863032343641116       -4.6644180084378704       -5.4689099662644907                0           0           0
           9           1   1.5129459999999999       0.94149567851894744       -5.5175020432540478       -4.9791754935184578                0           0           0
          10           1  0.87097899999999995        2.1168120884037798       -5.5770185652982347       -4.7700718157363280                0           0           0
          11           1  0.82823300000000000        1.9387627006383399       -5.3930853331423432       -5.6946801630871526                0           0           0
          12           1   1.3333429999999999        3.0332219685152584       -5.3225059003913922       -5.5311092097762034                0           0           0
          13           1  0.81986499999999995        4.1249530727964814       -5.3037345972734782       -5.3245169392176210                0           0           0
          14           1  0.74748000000000003        3.5272552923162177       -5.5377780335004934       -4.6452420522540230                0           0           0
          15           1  0.86770400000000003        4.9220781929919948       -4.8161183835766774       -4.9825931825400902                0           0           0
          16           1  0.73948999999999998        4.6876524397848858       -5.6948829416839057       -4.8000747925238052                0           0           0
          17           1   1.1174949999999999       -4.8047521548975727       -4.1509985169000867       -5.5319043813919295                0           0           0
          18           1   1.0167780000000000       -4.0196605896991073       -4.1374320827390960       -4.6488731834436692                0           0           0
          19           1   1.0699300000000000       -2.8679384280341544       -4.0614036221563179       -4.8551925216741916                0           0           0
          20           1  0.76943799999999996       -1.9714055615850925       -4.0843430494131407       -5.3017577438531918                0           0           0
          21           1   1.0829869999999999      -0.23485603729755944       -3.7582870380932194       -5.6605835967672302                0           0           0
          22           1   1.3859269999999999       0.98463063036662390       -3.6828142733570735       -5.3592071491818976                0           0           0
          23           1  0.77240699999999995        1.0948835845644593       -4.4976356243165014       -4.6474407297287526                0           0           0
          24           1   1.1917739999999999        2.0321067418431307       -4.5362833603282606       -4.9965690667691067                0           0           0
          25           1  0.76583000000000001        1.8125734214194509       -3.5338751461501205       -4.7306321658965356                0           0           0
          26           1  0.97774899999999998        2.1686439565910893       -3.5609788964102904       -5.6178777167193088                0           0           0
          27           1  0.83108000000000004        2.9362963279776508       -4.1951397521861287       -5.3745636188266523                0           0           0
          28           1   1.2215430000000000        3.9915611896097722       -4.2722713562085834       -5.2408547188192420                0           0           0
          29           1   1.3806490000000000        5.3915560919504202       -3.8292546122785120       -5.3313725525898645                0           0           0
          30           1   1.0400879999999999       -5.1653475006879281       -2.9712864307834406       -5.6341729593998302                0           0           0
          31           1  0.77126099999999997       -4.2861808563173449       -3.2887887580426960       -5.2702543215841029                0           0           0
          32           1  0.92384800000000000       -4.2918341607711090       -2.3911582711306885       -4.9409603449882722                0           0           0
          33           1  0.88862900000000000       -2.3228959940811280       -3.1388957648718918       -4.8728600422110917                0           0           0
          34           1  0.86158199999999996       -3.0702670445647291       -2.8390936471964916       -5.5410007444009981                0           0           0
          35           1   1.1209890000000000       -1.3078058067498928       -3.3597157101513972       -5.2635649997986782                0           0           0
          36           1   1.2420370000000001      -0.20102608459670357       -2.9277652613148195       -4.7173791047426645                0           0           0
          37           1  0.88274100000000000       -1.0391703509030625       -2.3314148840860049       -5.1652909528646838                0           0           0
          38           1   1.0668899999999999       0.70381065951880295       -2.4477652293912828       -5.4117965949240308                0           0           0
          39           1   1.1892499999999999        1.8748921015793565       -2.5742898094339521       -5.0863285468753885                0           0           0
          40           1  0.78319600000000000        2.8184591939293639       -2.8139338227887194       -5.3770409507252221                0           0           0
          41           1  0.77194799999999997        2.7280301835723169       -2.2918945270779791       -4.5384548786905787                0           0           0
          42           1  0.74873199999999995        3.6784795470864662       -3.3171809913245220       -5.1788620536555614                0           0           0
          43           1   1.0263439999999999        4.5254148169922424       -3.2031838522483538       -4.7609865325261111                0           0           0
          44           1  0.81308199999999997        4.5624525856444329       -2.4832301849822334       -5.4237368837513253                0           0           0
          45           1   1.1161060000000000        3.6450252114100046       -2.3673023104316875       -4.9799551853419075                0           0           0
          46           1   1.2125560000000000        5.4790051246327778       -2.4261306490848873       -4.9202963687559489                0           0           0
          47           1  0.74192100000000005       -5.0311678374714868       -2.0607993690633499       -5.3461596916716907                0           0           0
          48           1  0.91800800000000005       -4.1458040653221460       -1.5526008408581236       -5.5032369756659598                0           0           0
          49           1  0.83222700000000005       -3.2283388106873017       -1.9526232123253875       -5.2758160088962098                0           0           0
          50           1   1.0095200000000000       -2.5303673099558743       -1.2251155516991217       -4.8865725231775539                0           0           0
          51           1   1.4893410000000000       -2.1325344152732058       -2.1955971234638900       -5.5781646557933628                0           0           0
          52           1   1.2179240000000000       -1.3411775873844451       -1.3240078412633460       -4.7683731984629620                0           0           0
          53           1   1.0644769999999999      -0.21666928736909785       -1.6540428201175397       -5.2130797487826301                0           0           0
          54           1   1.3780330000000001       0.97010177792825214       -1.2734067179271866       -5.0254908386685218                0           0           0
          55           1   1.0451729999999999        2.1542224974776243       -1.4273534190992549       -4.8234182897183802                0           0           0
          56           1  0.79520100000000005        3.6396502881025725       -1.3688672224742566       -5.2546311592379720                0           0           0
          57           1   1.0204660000000001        4.4168991364257355       -1.5879168615355521       -4.6064374500152958                0           0           0
          58           1  0.80856499999999998        5.3277060627054968       -1.3829435634570739       -5.0158472337649016                0           0           0
          59           1   1.3538969999999999       -5.0617897277350439       -1.0775731088083784       -4.9894215251734710                0           0           0
          60           1  0.75854699999999997       -4.0656781868748988      -0.67974824979932347       -5.1847512313297877                0           0           0
          61           1  0.73175199999999996       -2.4354104758865742      -0.43337204884775193       -5.3673106763345597                0           0           0
          62           1   1.0328729999999999       -3.2271769428285202      -0.32305894434439342       -4.8601524208415823                0           0           0
          63           1  0.75083299999999997       -1.6080352048822641      -0.29781027012069394       -5.2686525568779210                0           0           0
          64           1  0.82179500000000005       -1.8880977151301912       -1.0790677664700903       -5.6596640694018996                0           0           0
          65           1  0.90665300000000004      -1.01045239132613318E-002 -0.65458935003120455       -4.8652188575091895                0           0           0
          66           1  0.88653700000000002      -0.93845998017156607      -0.30313180124281125       -4.6174415815828933                0           0           0
          67           1   1.1960150000000001       0.61225240452612528      -5.74922349150899237E-002  -5.5077579025021741                0           0           0
          68           1   1.0855290000000000        1.7609467404201533      -0.25636379373584628       -4.9769808787786491                0           0           0
          69           1  0.97821599999999997        2.8735749334021303      -0.73357638096376299       -5.2598759938878121                0           0           0
          70           1   1.4363210000000000        3.8762231227382209      -0.46322340038282395       -4.6870686254691192                0           0           0
          71           1   1.1656560000000000        5.2170076085894248      -0.35847616910598834       -4.9095696385605603                0           0           0
          72           1   1.0241950000000000       -5.1406825586691838       5.87735806466733735E-002  -5.4447886065690128                0           0           0
          73           1  0.83424600000000004       -4.6088626078131218       0.76577933946654309       -4.9651814312440568                0           0           0
          74           1   1.2242780000000000       -5.7177674701416574       0.90313480617969066       -4.8387207862574710                0           0           0
          75           1   1.2615920000000000       -3.9362935341520711       0.26313500467815487       -5.6889141378403041                0           0           0
          76           1  0.96946900000000003       -2.7360891695133485       0.42175998869479958       -5.5132193657963642                0           0           0
          77           1   1.0105480000000000       -3.3816612228064025       0.85648686269540519       -4.7512241537862447                0           0           0
          78           1   1.1696240000000000       -1.6385608293714986       0.71424989157231877       -5.3753752687318288                0           0           0
          79           1  0.91265600000000002       -2.2981832042425547        1.0205818114566503       -4.5821115789157085                0           0           0
          80           1  0.77751099999999995      -0.66610694971275386       0.45389905306696221       -5.3559263569444644                0           0           0
          81           1  0.88239800000000002       0.43082084330176595        1.0354430343208723       -5.3345151887256828                0           0           0
          82           1  0.79924200000000001        1.0752015174960743       0.44380306943874182       -4.6709446576925373                0           0           0
          83           1   1.1011640000000000        1.4521289527911900       0.81917286991714011       -5.6048478147423424                0           0           0
          84           1   1.4763390000000001        2.1760084915948861       0.88882575974199796       -4.5367639587381650                0           0           0
          85           1  0.85063500000000003        2.9561264806122143       0.18948898929223290       -4.8874278863967886                0           0           0
          86           1  0.83979999999999999        3.6400174511662993       0.21453355378978856       -5.5441755477078889                0           0           0
          87           1   1.1119710000000000        4.4783580677555435       0.66492878407080802       -5.0028340052601870                0           0           0
          88           1  0.92940100000000003       -5.4550804096120951        1.9609104164231246       -5.0981121743095166                0           0           0
          89           1  0.98624599999999996       -4.6161768901950557        2.3555456774462886       -5.6286076740886015                0           0           0
          90           1  0.88377099999999997       -3.8560768697114982        1.4225893192784431       -5.5084082428738554                0           0           0
          91           1   1.4289920000000000       -4.4191941396330092        1.7657760908876519       -4.5649947791055006                0           0           0
          92           1   1.2863240000000000       -2.6715034507716373        1.6150540164358604       -5.4893023002567283                0           0           0
          93           1  0.83280200000000004       -3.2648464868605367        1.8604095707742605       -4.5912768495717931                0           0           0
          94           1  0.91532000000000002       -1.5877115865304230        1.8497061485214195       -5.2070912557227800                0           0           0
          95           1   1.0549850000000001      -0.61783701614069120        1.4258011552080179       -5.3284327274662768                0           0           0
          96           1   1.4844250000000001       0.40502487534476916        2.1895410485160234       -5.4344972951586970                0           0           0
          97           1  0.86414400000000002        1.4748813225370068        1.8119408275843671       -5.3048817955884351                0           0           0
          98           1   1.3125690000000001        2.4412485400302266        2.2813920889271202       -5.1456655643798390                0           0           0
          99           1  0.82318199999999997        2.3789920341881619        1.2576469313917960       -5.6207003798986808                0           0           0
         100           1   1.2526790000000001        3.3996331845685841        1.2358879604929855       -5.3622042435860990                0           0           0
         101           1   1.3715560000000000        4.6945375067204331        1.9452049744930893       -5.2160687265352221                0           0           0
         102           1   1.1018300000000001       -5.2714633589908884        2.9235227112424909       -4.6570133311522390                0           0           0
         103           1   1.0932630000000001       -3.5685705346355929        2.4589113321253073       -5.3443862345054542                0           0           0
         104           1  0.91189900000000002       -4.1203578338231450        2.8845586268127583       -4.5134746805069383                0           0           0
         105           1  0.73728300000000002       -2.6122818656209437        2.6384881628620462       -5.2597282892656851                0           0           0
         106           1  0.79696199999999995       -3.3110362163889913        3.3998085059761447       -5.2548957899878026                0           0           0
         107           1   1.2884510000000000       -1.6748943900081024        2.9521722774194252       -4.9477679312282854                0           0           0
         108           1  0.90628100000000000      -0.72600323410185386        2.3973350383515992       -4.7441700614651081                0           0           0
         109           1   1.2439519999999999      -0.38396311853546994        3.3603050912720658       -5.1966766920169354                0           0           0
         110           1  0.85372000000000003      -0.78368913264301732        2.4273729245068036       -5.7193023482226240                0           0           0
         111           1  0.79320299999999999       0.61275007106338286        3.3028895184008693       -5.5964549559855268                0           0           0
         112           1  0.83657099999999995        1.1733492300632742        2.4696386279626736       -4.6462072170213657                0           0           0
         113           1  0.79898800000000003        2.9593381821075155        3.1904584556528128       -4.7848979845189028                0           0           0
         114           1  0.97961900000000002        3.5943891874575744        2.3822529867335156       -4.7884155205383294                0           0           0
         115           1  0.80490099999999998        4.3392443065312900        2.9624452091496813       -5.0309047330138501                0           0           0
         116           1  0.76785300000000001        5.2776679860470921        2.8450818428585816       -5.1952282006649373                0           0           0
         117           1  0.78729899999999997       -4.9543655772801296        4.4901086646344268       -5.4880500938355619                0           0           0
         118           1  0.86933700000000003       -5.5496353160255465        3.5902615228187500       -5.4415284212603803                0           0           0
         119           1   1.4795579999999999       -4.3758613729639961        3.5591575269348574       -5.4177121631151106                0           0           0
         120           1   1.1486650000000000       -3.1799926482596343        4.3757213286746630       -5.0860363894438265                0           0           0
         121           1  0.75789499999999999       -2.3828181452185575        3.7427344452836362       -4.9443781447836646                0           0           0
         122           1  0.80026200000000003       -2.3163652084721793        4.4445637757830383       -5.6158663908776187                0           0           0
         123           1  0.84546600000000005       -1.5219914402821484        3.9563020185952418       -5.5385633664112310                0           0           0
         124           1  0.74727200000000005       -1.2023661353288029        3.8559593877153748       -4.6781806085510125                0           0           0
         125           1   1.1842509999999999       -1.9024049444474311        4.6011250723507668       -4.6946010120598540                0           0           0
         126           1   1.0372950000000001      -0.65500770974700195        4.5183154212789116       -5.4040413711682387                0           0           0
         127           1  0.75573400000000002       0.26271422824206159        4.1635865594152364       -5.1369128366111232                0           0           0
         128           1  0.90554000000000001        1.2389661222056034        4.0873553034771799       -5.6148005811500479                0           0           0
         129           1  0.73019400000000001        1.8108223355684361        4.2142038920095697       -4.6967765801519619                0           0           0
         130           1   1.1501790000000001        2.1517328733299221        3.5489258161805601       -5.3284098482181017                0           0           0
         131           1   1.0361840000000000        3.0248667276724781        4.2518062184181940       -5.0754817954821290                0           0           0
         132           1  0.78415599999999996        3.9299731623131340        3.9082922573317003       -5.1479301656186651                0           0           0
         133           1  0.84128000000000003        4.6830738942736350        4.1814180792584459       -4.6289719681814692                0           0           0
         134           1   1.3047489999999999        4.8092799013006626        3.6868513317348501       -5.6345813905268685                0           0           0
         135           1  0.87163800000000002       -5.3645082027841564        5.3221356210873036       -5.1979817110221482                0           0           0
         136           1   1.1479109999999999       -4.3659100039733802        4.7461770550209792       -4.6958228543595242                0           0           0
         137           1  0.85967499999999997       -3.6102003023668363        5.3377308543872122       -5.1030745882266499                0           0           0
         138           1  0.80051799999999995       -4.4894593354022065        5.3865427969272819       -5.5108662343117167                0           0           0
         139           1   1.1004989999999999       -2.5936807871080747        5.4337077336093902       -5.4093770056703292                0           0           0
         140           1  0.95438500000000004       -1.5494557874034181        5.6910275658709253       -5.1988813316273026                0           0           0
         141           1  0.98720399999999997      -0.34509322802242970        5.6413744540918156       -5.5564832569917959                0           0           0
         142           1  0.86126300000000000       0.22233105364675154        5.0204570979055152       -4.8422969704331420                0           0           0
         143           1  0.79245800000000000        1.0893718288892273        4.7019835188911276       -4.7939267777522767                0           0           0
         144           1   1.2686580000000001        1.9928249906640980        4.9459882025988673       -5.3295659694080362                0           0           0
         145           1  0.86478800000000000        2.9189590253323345        5.2734238230282422       -4.8601276996959779                0           0           0
         146           1  0.73688299999999995        3.1259239879660825        5.0176610125218595       -5.7073519433777236                0           0           0
         147           1   1.4304490000000001        3.9911899516209086        4.9948090826985041       -4.9124578645323185                0           0           0
         148           1  0.76117100000000004        5.1021469948493934        5.0318977733681649       -5.0217643935311935                0           0           0
         149           1  0.81904200000000005        4.6135099836014390        4.8809529607215438        5.6745474513037628                0           0           0
         150           1  0.74355499999999997       -5.1758256088218353       -5.2343020938653408       -3.7935534460866673                0           0           0
         151           1  0.76271500000000003       -3.9039014952439128       -5.0066482515569986       -3.9575029681483751                0           0           0
         152           1  0.76898400000000000       -2.4904589164225071       -4.8078733344602078       -4.0499320866149082                0           0           0
         153           1   1.0236600000000000       -3.1903058592948548       -5.5613855126326683       -3.5254419830713948                0           0           0
         154           1  0.73077700000000001       -1.4110094122482151       -5.0768194295118354       -3.6682515990108566                0           0           0
         155           1   1.1202880000000000       -2.0341871124389899       -5.6805026257779634       -4.1902776252752387                0           0           0
         156           1  0.76807899999999996       -1.2218237995919390       -5.1501699027676056       -4.4874811412968292                0           0           0
         157           1   1.3321630000000000      -0.40508989468179646       -4.9695678560004328       -3.6567554256764745                0           0           0
         158           1  0.80179999999999996       0.67186731792676913       -4.9152112894088091       -3.9400468983501717                0           0           0
         159           1  0.94373200000000002        1.6273326112300994       -5.0609694785609136       -4.0234117452478326                0           0           0
         160           1  0.95481799999999994        3.1811963973562580       -4.6699792515374101       -4.5100792695514897                0           0           0
         161           1   1.4699640000000000        2.7784226601276778       -5.6375300760969065       -3.8586859842469199                0           0           0
         162           1   1.3309860000000000        4.2528152672691242       -5.0858889422820859       -4.0928824570575149                0           0           0
         163           1   1.1672389999999999        5.5652260148640451       -5.5078985158870006       -4.4615476669484613                0           0           0
         164           1  0.96901499999999996       -5.4438960466838129       -4.4013678526323563       -4.4230631928341726                0           0           0
         165           1   1.1382319999999999       -4.6493633132008725       -4.3876105588653269       -3.6083431047837951                0           0           0
         166           1   1.0295930000000000       -5.6943431307058407       -3.7178341660260790       -3.5815174879325915                0           0           0
         167           1  0.75638000000000005       -4.0992825470122209       -3.5538480521589375       -3.8311913585912984                0           0           0
         168           1   1.4976440000000000       -3.2645452349932937       -4.1972280987513386       -3.6176897131659262                0           0           0
         169           1   1.3677140000000001       -1.8342116298843312       -3.9954737438261141       -4.2021336043136461                0           0           0
         170           1  0.87362600000000001      -0.82445402845236959       -4.3105197476789359       -4.4434325586805024                0           0           0
         171           1  0.77448300000000003      -0.47941367709906402       -3.9082253032813470       -3.6623931469004103                0           0           0
         172           1   1.1426689999999999       0.19077600467988631       -4.1450208707391694       -4.4589879355779498                0           0           0
         173           1   1.6053649999999999        1.3809996071085289       -3.8484199406296487       -3.7832400985754111                0           0           0
         174           1  0.81254700000000002        2.3912352163252333       -4.4070866811554588       -4.0174103774242935                0           0           0
         175           1   1.5251770000000000        2.8624439207981762       -3.4446874933269296       -4.4877643140124590                0           0           0
         176           1  0.90739599999999998        3.9015564603808741       -3.9256934721408498       -4.1833014525992516                0           0           0
         177           1  0.91723800000000000        3.4728319998152894       -3.2936379612116728       -3.4596428134392836                0           0           0
         178           1  0.98055700000000001        4.9372169947911893       -4.1290061292851918       -4.2341120817656384                0           0           0
         179           1   1.4378010000000001       -4.9254252305992337       -3.2638289288803519       -4.4155608996305480                0           0           0