LAMMPS data file via write_data, version 17 Nov 2016, timestep = 0
      
  1500 atoms
      
1 atom types
  -5.7235712129999996        5.7235712129999996      xlo xhi
  -5.7235712129999996        5.7235712129999996      ylo yhi
  -5.7235712129999996        5.7235712129999996      zlo zhi
Masses
      
1 1
      
Pair Coeffs # lj/poly
      
                               1 1.0 1.0 2.025 1.25 0.2
      
Atoms # charge
      
           1           1  0.82965299999999997       -5.5519498221615198       -4.8787671849079919       -5.2650653795007880                0           0           0
           2           1   1.5413479999999999       -4.5877427132958637       -5.2700579284984439       -4.7550049396438112                0           0           0
           3           1  0.86062700000000003       -3.8156344142619698       -4.7618082860589510       -5.4934023744827281                0           0           0
           4           1   1.2325940000000000       -3.1903183340215713       -5.2214713407722382       -4.6654222639179075                0           0           0
           5           1  0.92110899999999996       -2.0941573159115814       -4.8950225591121805       -4.8984751347480868                0           0           0
           6           1   1.5043869999999999       -1.0424475423250392       -4.7251448119378852       -5.4644125027295587                0           0           0
           7           1  0.88103100000000001      -0.19879310737137335       -5.1570790059217426       -4.7414188370939048                0           0           0
           8           1  0.92227999999999999       0.29963856318228732       -4.6651327812226224       -5.4704075387928510                0           0           0
           9           1   1.5129459999999999       0.93726285815660670       -5.5241208647579194       -4.9833750903724647                0           0           0
          10           1  0.87097899999999995        2.1155066986340163       -5.5803755675665263       -4.7752431200708170                0           0           0
          11           1  0.82823300000000000        1.9351338532924283       -5.3948874423975051       -5.6991072811412531                0           0           0
          12           1   1.3333429999999999        3.0288544372923436       -5.3273220634138294       -5.5336870941455905                0           0           0
          13           1  0.81986499999999995        4.1205915879058956       -5.3058320562512380       -5.3240810728299275                0           0           0
          14           1  0.74748000000000003        3.5247665895771387       -5.5418340846111231       -4.6474660349139114                0           0           0
          15           1  0.86770400000000003        4.9115836567647015       -4.8163787323176956       -4.9836952305344155                0           0           0
          16           1  0.73948999999999998        4.6869649189418094       -5.6953481588189456       -4.7996174755760563                0           0           0
          17           1   1.1174949999999999       -4.8107979683522890       -4.1477301201641978       -5.5268942238854155                0           0           0
          18           1   1.0167780000000000       -4.0282702508816532       -4.1305661749802347       -4.6467190985977140                0           0           0
          19           1   1.0699300000000000       -2.8724030998470096       -4.0579840449867666       -4.8534636111739022                0           0           0
          20           1  0.76943799999999996       -1.9742190786095652       -4.0816630270306806       -5.3005347328832038                0           0           0
          21           1   1.0829869999999999      -0.23591987454490049       -3.7589831022135218       -5.6610835363281273                0           0           0
          22           1   1.3859269999999999       0.98391394576591651       -3.6823325496398391       -5.3610667773100449                0           0           0
          23           1  0.77240699999999995        1.0855988664384313       -4.5021316662778581       -4.6546919091554422                0           0           0
          24           1   1.1917739999999999        2.0251977897312390       -4.5399415193081358       -5.0003742933902604                0           0           0
          25           1  0.76583000000000001        1.8154389031423230       -3.5371148521903355       -4.7332163175868676                0           0           0
          26           1  0.97774899999999998        2.1672539137513178       -3.5632638783199968       -5.6199423530389740                0           0           0
          27           1  0.83108000000000004        2.9277192126284870       -4.2004135754326395       -5.3783695196765198                0           0           0
          28           1   1.2215430000000000        3.9776811578092897       -4.2741766602830378       -5.2394419592184276                0           0           0
          29           1   1.3806490000000000        5.3890605766525166       -3.8319465090952596       -5.3272705791789416                0           0           0
          30           1   1.0400879999999999       -5.1867095226658204       -2.9546134819999392       -5.6212320828538100                0           0           0
          31           1  0.77126099999999997       -4.2997655373128998       -3.2827571568295446       -5.2673536944211516                0           0           0
          32           1  0.92384800000000000       -4.2998868362513738       -2.3801912934123868       -4.9361732454372689                0           0           0
          33           1  0.88862900000000000       -2.3255218541139886       -3.1367407131600502       -4.8729747386101856                0           0           0
          34           1  0.86158199999999996       -3.0718938971279797       -2.8360993504081868       -5.5386345242587955                0           0           0
          35           1   1.1209890000000000       -1.3086155395341645       -3.3596045998841193       -5.2627714127678393                0           0           0
          36           1   1.2420370000000001      -0.20097857141102971       -2.9253008674718837       -4.7198426848442878                0           0           0
          37           1  0.88274100000000000       -1.0392795907406365       -2.3308276565769943       -5.1669579891726043                0           0           0
          38           1   1.0668899999999999       0.70772099676732836       -2.4472041487867937       -5.4135163989196364                0           0           0
          39           1   1.1892499999999999        1.8826005720165062       -2.5771618516879276       -5.0883052955818009                0           0           0
          40           1  0.78319600000000000        2.8373954699512947       -2.8155837193075350       -5.3717554500427225                0           0           0
          41           1  0.77194799999999997        2.7319915776352843       -2.3003342892829446       -4.5310831381460863                0           0           0
          42           1  0.74873199999999995        3.6650912275460694       -3.3014489736662349       -5.1961728833183223                0           0           0
          43           1   1.0263439999999999        4.5034132550221333       -3.2473625411054363       -4.7634334309689059                0           0           0
          44           1  0.81308199999999997        4.5407264498444775       -2.5153642904069184       -5.4289480240299968                0           0           0
          45           1   1.1161060000000000        3.6574125916373799       -2.3533467275888040       -4.9586788314298396                0           0           0
          46           1   1.2125560000000000        5.4151651044970261       -2.4156819346973357       -4.8904458022790891                0           0           0
          47           1  0.74192100000000005       -5.0782456746271585       -2.0687876423487586       -5.2761430269840934                0           0           0
          48           1  0.91800800000000005       -4.1371423564099477       -1.5486254402638275       -5.5011202049435770                0           0           0
          49           1  0.83222700000000005       -3.2248718249016646       -1.9486626504616238       -5.2743472943173870                0           0           0
          50           1   1.0095200000000000       -2.5257047127824110       -1.2229022667697418       -4.8876302101059483                0           0           0
          51           1   1.4893410000000000       -2.1326727527174119       -2.1937903023599561       -5.5791813563974317                0           0           0
          52           1   1.2179240000000000       -1.3386691282168934       -1.3229017720194456       -4.7696155496070212                0           0           0
          53           1   1.0644769999999999      -0.21469181090373279       -1.6541729275020653       -5.2153911355545350                0           0           0
          54           1   1.3780330000000001       0.97287750480298829       -1.2733165611272010       -5.0265517170114320                0           0           0
          55           1   1.0451729999999999        2.1566976630256960       -1.4287689077938248       -4.8207575761125767                0           0           0
          56           1  0.79520100000000005        3.6436648016585362       -1.3661683454909355       -5.2480520023509456                0           0           0
          57           1   1.0204660000000001        4.4579645885955941       -1.5618011575952337       -4.6075358510909403                0           0           0
          58           1  0.80856499999999998        5.3541863428166785       -1.3701116643828772       -5.0297434192285992                0           0           0
          59           1   1.3538969999999999       -5.0450995373070153       -1.0703120374537187       -4.9826196394154465                0           0           0
          60           1  0.75854699999999997       -4.0571765244641229      -0.67502314769273664       -5.1846765706178912                0           0           0
          61           1  0.73175199999999996       -2.4314701873734261      -0.43065903281183182       -5.3682202072450753                0           0           0
          62           1   1.0328729999999999       -3.2217089611059135      -0.31987311198424528       -4.8598105706778325                0           0           0
          63           1  0.75083299999999997       -1.6043469236916383      -0.29539078714862477       -5.2699586238108482                0           0           0
          64           1  0.82179500000000005       -1.8849481814001718       -1.0768824496247795       -5.6612512711273837                0           0           0
          65           1  0.90665300000000004      -7.65910170873240759E-003 -0.65511922708288051       -4.8667520285984738                0           0           0
          66           1  0.88653700000000002      -0.93543601787125841      -0.30312199136414986       -4.6179560288203181                0           0           0
          67           1   1.1960150000000001       0.61499057921632794      -5.76005865705013775E-002  -5.5084591256604112                0           0           0
          68           1   1.0855290000000000        1.7637135946661804      -0.25697086959154536       -4.9773831608525532                0           0           0
          69           1  0.97821599999999997        2.8759131985860460      -0.73524958308250365       -5.2574531837420126                0           0           0
          70           1   1.4363210000000000        3.8767292893817515      -0.46268164108374155       -4.6834651484354453                0           0           0
          71           1   1.1656560000000000        5.2206724773176365      -0.35512003739997944       -4.9010936937657892                0           0           0
          72           1   1.0241950000000000       -5.1420536606678988       5.91187410026314808E-002  -5.4452854035015568                0           0           0
          73           1  0.83424600000000004       -4.6096627489977040       0.76576986674163194       -4.9647705181564206                0           0           0
          74           1   1.2242780000000000       -5.7163746117695435       0.90324756170003706       -4.8366899149259943                0           0           0
          75           1   1.2615920000000000       -3.9350288891863383       0.26533882863160851       -5.6881066851292470                0           0           0
          76           1  0.96946900000000003       -2.7344840159745569       0.42403423434647625       -5.5141000476621205                0           0           0
          77           1   1.0105480000000000       -3.3801908895659527       0.85882186847312347       -4.7514502690909755                0           0           0
          78           1   1.1696240000000000       -1.6373788751567693       0.71642490652526281       -5.3759983140985828                0           0           0
          79           1  0.91265600000000002       -2.2971710427735692        1.0213682249611367       -4.5823323385822841                0           0           0
          80           1  0.77751099999999995      -0.66538178955396265       0.45397088188990953       -5.3573440929198881                0           0           0
          81           1  0.88239800000000002       0.43336506520403617        1.0354838868162481       -5.3360676004764498                0           0           0
          82           1  0.79924200000000001        1.0778456942801071       0.44364920247630124       -4.6720318202028626                0           0           0
          83           1   1.1011640000000000        1.4547512380832330       0.81839104056462997       -5.6061775660075508                0           0           0
          84           1   1.4763390000000001        2.1777622462780144       0.88819728238180051       -4.5376654080198424                0           0           0
          85           1  0.85063500000000003        2.9581945558620504       0.18884814524249904       -4.8874895304508730                0           0           0
          86           1  0.83979999999999999        3.6453376878329280       0.21064002009659255       -5.5427714087394344                0           0           0
          87           1   1.1119710000000000        4.4799221055382166       0.66462361912300949       -5.0007685855438240                0           0           0
          88           1  0.92940100000000003       -5.4554565240830382        1.9598607411992504       -5.0996663007789351                0           0           0
          89           1  0.98624599999999996       -4.6157852393492753        2.3568453985232249       -5.6276975264670543                0           0           0
          90           1  0.88377099999999997       -3.8556501339929916        1.4239135597803925       -5.5086765576281698                0           0           0
          91           1   1.4289920000000000       -4.4181822359972465        1.7662286069490447       -4.5649549189801624                0           0           0
          92           1   1.2863240000000000       -2.6701845939069719        1.6169208776366775       -5.4895324953406064                0           0           0
          93           1  0.83280200000000004       -3.2630513617634413        1.8622831359079104       -4.5907336676288919                0           0           0
          94           1  0.91532000000000002       -1.5856386683973840        1.8517032720773905       -5.2084352579115816                0           0           0
          95           1   1.0549850000000001      -0.61642179875892111        1.4257992587482322       -5.3306091542323530                0           0           0
          96           1   1.4844250000000001       0.40585347019473339        2.1894946464186509       -5.4363371458925673                0           0           0
          97           1  0.86414400000000002        1.4755023749447806        1.8115769379416200       -5.3067960620817463                0           0           0
          98           1   1.3125690000000001        2.4424372786933688        2.2798378565944635       -5.1466802590107390                0           0           0
          99           1  0.82318199999999997        2.3814612101790900        1.2558229005218600       -5.6227674783364474                0           0           0
         100           1   1.2526790000000001        3.4016153738371475        1.2327853739461423       -5.3628864466817614                0           0           0
         101           1   1.3715560000000000        4.6953289765628377        1.9445062489983496       -5.2157314569437823                0           0           0
         102           1   1.1018300000000001       -5.2698288391537718        2.9221335211088526       -4.6572296299195504                0           0           0
         103           1   1.0932630000000001       -3.5679123152129613        2.4599929732040007       -5.3443595645269157                0           0           0
         104           1  0.91189900000000002       -4.1192141303575500        2.8850302560231089       -4.5130905222193540                0           0           0
         105           1  0.73728300000000002       -2.6118428443810369        2.6405328751427071       -5.2608923332887496                0           0           0
         106           1  0.79696199999999995       -3.3098404706640565        3.4008898082340693       -5.2544231481892254                0           0           0
         107           1   1.2884510000000000       -1.6748162143574357        2.9537739214972163       -4.9486376260226876                0           0           0
         108           1  0.90628100000000000      -0.72589670392705230        2.3973588560017376       -4.7460681587427533                0           0           0
         109           1   1.2439519999999999      -0.38414040993572041        3.3599600935130507       -5.1986244172063181                0           0           0
         110           1  0.85372000000000003      -0.78264703412700154        2.4272773419004849       -5.7211312911735934                0           0           0
         111           1  0.79320299999999999       0.61308829716685320        3.3023168006675867       -5.5993566697151946                0           0           0
         112           1  0.83657099999999995        1.1739617382593339        2.4685203481293634       -4.6471027751856973                0           0           0
         113           1  0.79898800000000003        2.9607750143281191        3.1893571294507321       -4.7868681462894438                0           0           0
         114           1  0.97961900000000002        3.5956614136303759        2.3816162505991070       -4.7888548496261949                0           0           0
         115           1  0.80490099999999998        4.3404863139915602        2.9621281957606485       -5.0315058437901072                0           0           0
         116           1  0.76785300000000001        5.2785718979883995        2.8443698308407459       -5.1952495725691117                0           0           0
         117           1  0.78729899999999997       -4.9538256007664385        4.4938136958912587       -5.4867748548730972                0           0           0
         118           1  0.86933700000000003       -5.5488301533562465        3.5890041051751282       -5.4411617255038207                0           0           0
         119           1   1.4795579999999999       -4.3752237279715924        3.5611136385219417       -5.4165832437682671                0           0           0
         120           1   1.1486650000000000       -3.1823130890043658        4.3771679411032896       -5.0843497176955053                0           0           0
         121           1  0.75789499999999999       -2.3848346125049042        3.7432099357051829       -4.9453183101716141                0           0           0
         122           1  0.80026200000000003       -2.3190821075502703        4.4453557195614604       -5.6145165261786936                0           0           0
         123           1  0.84546600000000005       -1.5234775311881128        3.9580303823238516       -5.5396341748214981                0           0           0
         124           1  0.74727200000000005       -1.2032209660300426        3.8577396169744791       -4.6792729083922184                0           0           0
         125           1   1.1842509999999999       -1.9053780908392071        4.6014656346348382       -4.6939732175439595                0           0           0
         126           1   1.0372950000000001      -0.65484847078574937        4.5182445022056630       -5.4063899074319517                0           0           0
         127           1  0.75573400000000002       0.26322170689209301        4.1606176397021404       -5.1404572627576943                0           0           0
         128           1  0.90554000000000001        1.2394644102182637        4.0853321086535921       -5.6181066555304930                0           0           0
         129           1  0.73019400000000001        1.8102905352780869        4.2136418260837267       -4.6967158182333684                0           0           0
         130           1   1.1501790000000001        2.1518406963084109        3.5475109470574058       -5.3296916204533105                0           0           0
         131           1   1.0361840000000000        3.0262865515057413        4.2485937847818889       -5.0792674492138081                0           0           0
         132           1  0.78415599999999996        3.9312282199994719        3.9054101405374517       -5.1494261254094473                0           0           0
         133           1  0.84128000000000003        4.6840851385438569        4.1794585353031639       -4.6300597721569003                0           0           0
         134           1   1.3047489999999999        4.8107159176237815        3.6860981402316266       -5.6357043559660926                0           0           0
         135           1  0.87163800000000002       -5.3690939387388354        5.3258139029482443       -5.1914856427317906                0           0           0
         136           1   1.1479109999999999       -4.3673395340630936        4.7486223311897664       -4.6938612002827380                0           0           0
         137           1  0.85967499999999997       -3.6129216614635236        5.3400100638870072       -5.1017133091846230                0           0           0
         138           1  0.80051799999999995       -4.4939932860581919        5.3875295821963221       -5.5089395428125334                0           0           0
         139           1   1.1004989999999999       -2.5976876053071862        5.4343744130791389       -5.4075693198615813                0           0           0
         140           1  0.95438500000000004       -1.5550568197556567        5.6943286939655309       -5.2011166629365082                0           0           0
         141           1  0.98720399999999997      -0.33457753069673224        5.6423026938605627       -5.5520403482431764                0           0           0
         142           1  0.86126300000000000       0.21853605343046389        5.0145276038468420       -4.8430364038118743                0           0           0
         143           1  0.79245800000000000        1.0873068862215698        4.6991894485842209       -4.8038387084160137                0           0           0
         144           1   1.2686580000000001        1.9932607036186960        4.9424233384464831       -5.3325198298777359                0           0           0
         145           1  0.86478800000000000        2.9195138439025659        5.2685682604106958       -4.8634699205280665                0           0           0
         146           1  0.73688299999999995        3.1240291100393840        5.0154021329554812       -5.7118782693848447                0           0           0
         147           1   1.4304490000000001        3.9923215480822414        4.9922479237287511       -4.9136525957341393                0           0           0
         148           1  0.76117100000000004        5.1017024371020483        5.0308650981597847       -5.0212806521427620                0           0           0
         149           1  0.81904200000000005        4.6139138393696566        4.8786053938474083        5.6737476378527951                0           0           0
         150           1  0.74355499999999997       -5.1813430208855067       -5.2281290251277319       -3.7834806917734838                0           0           0
         151           1  0.76271500000000003       -3.9052101783135855       -5.0059692379982756       -3.9554825306824819                0           0           0
         152           1  0.76898400000000000       -2.4929073971396107       -4.8050735743381425       -4.0478002603919085                0           0           0
         153           1   1.0236600000000000       -3.1914840360658010       -5.5611950654011073       -3.5240342690806363                0           0           0
         154           1  0.73077700000000001       -1.4167455307729551       -5.0678493016291046       -3.6728123983479359                0           0           0
         155           1   1.1202880000000000       -2.0380295765231966       -5.6792217647154182       -4.1912335434446124                0           0           0
         156           1  0.76807899999999996       -1.2243599469154915       -5.1512809869420284       -4.4895700322041918                0           0           0
         157           1   1.3321630000000000      -0.40988553841384867       -4.9706244236883048       -3.6583084779217212                0           0           0
         158           1  0.80179999999999996       0.66492607770869672       -4.9134992360613792       -3.9423749267653463                0           0           0
         159           1  0.94373200000000002        1.6184296852729050       -5.0663286049271505       -4.0334319823863156                0           0           0
         160           1  0.95481799999999994        3.1735108429790309       -4.6778822914505094       -4.5103882477980255                0           0           0
         161           1   1.4699640000000000        2.7736218651875824       -5.6450525383508623       -3.8621140233824116                0           0           0
         162           1   1.3309860000000000        4.2474091359560351       -5.0917778072258315       -4.0897869837072633                0           0           0
         163           1   1.1672389999999999        5.5613452238061836       -5.4972293737891906       -4.4548815036550122                0           0           0
         164           1  0.96901499999999996       -5.4396746037375401       -4.3963319223731352       -4.4225558638425619                0           0           0
         165           1   1.1382319999999999       -4.6489075628641583       -4.3843474449975215       -3.6069851969367450                0           0           0
         166           1   1.0295930000000000       -5.6940438962403839       -3.7178532896238088       -3.5813040506654068                0           0           0
         167           1  0.75638000000000005       -4.1061303661904729       -3.5481772782078265       -3.8350953111504262                0           0           0
         168           1   1.4976440000000000       -3.2685615875848484       -4.1935735934724354       -3.6178622400545248                0           0           0
         169           1   1.3677140000000001       -1.8381190216754031       -3.9908676390758595       -4.1999726021679047                0           0           0
         170           1  0.87362600000000001      -0.83076321412561338       -4.3107555371473056       -4.4433901340079656                0           0           0
         171           1  0.77448300000000003      -0.48235241463737122       -3.9087089674548467       -3.6631917720232332                0           0           0
         172           1   1.1426689999999999       0.18423588284099868       -4.1431735790814548       -4.4625885755624921                0           0           0
         173           1   1.6053649999999999        1.3746971313555125       -3.8514301946556442       -3.7902879891021120                0           0           0
         174           1  0.81254700000000002        2.3838699148918465       -4.4097125222045728       -4.0228267015496693                0           0           0
         175           1   1.5251770000000000        2.8670496465951629       -3.4526462360404158       -4.4891247235428757                0           0           0
         176           1  0.90739599999999998        3.8975184864615784       -3.9444163013978506       -4.1698311215278157                0           0           0
         177           1  0.91723800000000000        3.4659260288592790       -3.3070639375593549       -3.4530143844858658                0           0           0
         178           1  0.98055700000000001        4.9388192890262790       -4.1430972065315208       -4.2266065221653131                0           0           0
         179           1   1.4378010000000001       -4.9395544625748151       -3.2481829682542953       -4.4109276228873915                0           0           0