LAMMPS data file via write_data, version 17 Nov 2016, timestep = 0
      
  1500 atoms
      
1 atom types
  -5.7235712129999996        5.7235712129999996      xlo xhi
  -5.7235712129999996        5.7235712129999996      ylo yhi
  -5.7235712129999996        5.7235712129999996      zlo zhi
Masses
      
1 1
      
Pair Coeffs # lj/poly
      
                               1 1.0 1.0 2.025 1.25 0.2
      
Atoms # charge
      
           1           1  0.82965299999999997       -5.5530225858891606       -4.8785238255394816       -5.2652725449177398                0           0           0
           2           1   1.5413479999999999       -4.5885259323402687       -5.2705168230887658       -4.7555007695832643                0           0           0
           3           1  0.86062700000000003       -3.8163156904183895       -4.7617289393395819       -5.4938690572481015                0           0           0
           4           1   1.2325940000000000       -3.1913962019732587       -5.2219334287115453       -4.6667678660395575                0           0           0
           5           1  0.92110899999999996       -2.0949125328920113       -4.8965640036764997       -4.8994310934532814                0           0           0
           6           1   1.5043869999999999       -1.0428999324541515       -4.7265448256648854       -5.4652572385609872                0           0           0
           7           1  0.88103100000000001      -0.19910776427947319       -5.1578280917766488       -4.7416407139738039                0           0           0
           8           1  0.92227999999999999       0.29952622742131041       -4.6663578467151741       -5.4709052253337509                0           0           0
           9           1   1.5129459999999999       0.93596308129176542       -5.5258299358395195       -4.9826040473832931                0           0           0
          10           1  0.87097899999999995        2.1147055939666153       -5.5810665156467669       -4.7747021085688468                0           0           0
          11           1  0.82823300000000000        1.9342754125302815       -5.3957557416307704       -5.6990457848836718                0           0           0
          12           1   1.3333429999999999        3.0278032859129063       -5.3282672835121252       -5.5345111897998338                0           0           0
          13           1  0.81986499999999995        4.1194752238618726       -5.3061401210974397       -5.3249455463562851                0           0           0
          14           1  0.74748000000000003        3.5239177975484388       -5.5418787216837284       -4.6476680305392284                0           0           0
          15           1  0.86770400000000003        4.9101736555538320       -4.8157355073111354       -4.9842241975638650                0           0           0
          16           1  0.73948999999999998        4.6855315574995551       -5.6946849488834390       -4.7997168132533838                0           0           0
          17           1   1.1174949999999999       -4.8117592017263782       -4.1471204680539042       -5.5246886536883570                0           0           0
          18           1   1.0167780000000000       -4.0274586897324767       -4.1324145527095668       -4.6460175891803992                0           0           0
          19           1   1.0699300000000000       -2.8718218272138043       -4.0598441959357956       -4.8542561586160069                0           0           0
          20           1  0.76943799999999996       -1.9740654401933351       -4.0829284962221486       -5.3012098601861464                0           0           0
          21           1   1.0829869999999999      -0.23638804265520541       -3.7602909468963812       -5.6617143207001055                0           0           0
          22           1   1.3859269999999999       0.98335900726554382       -3.6831104267538759       -5.3622921876496266                0           0           0
          23           1  0.77240699999999995        1.0850072538351831       -4.5029773531026915       -4.6553213927852211                0           0           0
          24           1   1.1917739999999999        2.0243483244900302       -4.5407405394199287       -5.0011054136427280                0           0           0
          25           1  0.76583000000000001        1.8148664264673187       -3.5375963857946795       -4.7344879065571588                0           0           0
          26           1  0.97774899999999998        2.1664353481248106       -3.5640406109163987       -5.6213528677552578                0           0           0
          27           1  0.83108000000000004        2.9263655142295626       -4.2011459129639146       -5.3795056586068188                0           0           0
          28           1   1.2215430000000000        3.9757692029526996       -4.2748141193991787       -5.2403518301581835                0           0           0
          29           1   1.3806490000000000        5.3890065126464588       -3.8311369576771721       -5.3272869601237023                0           0           0
          30           1   1.0400879999999999       -5.1899209794349890       -2.9440472591592770       -5.6158967983966166                0           0           0
          31           1  0.77126099999999997       -4.3020668641827591       -3.2819975079422319       -5.2699269337037133                0           0           0
          32           1  0.92384800000000000       -4.2882825626175958       -2.3843376522702919       -4.9325946100206908                0           0           0
          33           1  0.88862900000000000       -2.3254491529450325       -3.1376902084436598       -4.8724789918607208                0           0           0
          34           1  0.86158199999999996       -3.0743253970689564       -2.8364853641992984       -5.5360810036084391                0           0           0
          35           1   1.1209890000000000       -1.3090283946726240       -3.3604364568774008       -5.2635693890408151                0           0           0
          36           1   1.2420370000000001      -0.20157168188430941       -2.9256898192710206       -4.7209403287714782                0           0           0
          37           1  0.88274100000000000       -1.0404870190943907       -2.3316269684523032       -5.1674681138436460                0           0           0
          38           1   1.0668899999999999       0.70710184253158026       -2.4482048144679531       -5.4151907471977196                0           0           0
          39           1   1.1892499999999999        1.8819513260430458       -2.5778595584715198       -5.0897093472366768                0           0           0
          40           1  0.78319600000000000        2.8369032348162424       -2.8165018931911772       -5.3731687502762213                0           0           0
          41           1  0.77194799999999997        2.7303800183263984       -2.3011003520280915       -4.5311209995347808                0           0           0
          42           1  0.74873199999999995        3.6637008844120018       -3.3008674346829321       -5.1983023427493329                0           0           0
          43           1   1.0263439999999999        4.5009356011074537       -3.2507356887434620       -4.7641172375145509                0           0           0
          44           1  0.81308199999999997        4.5364718645145494       -2.5183150246575230       -5.4299462980135758                0           0           0
          45           1   1.1161060000000000        3.6557385048528861       -2.3530744475613279       -4.9584920565386525                0           0           0
          46           1   1.2125560000000000        5.4059580342686342       -2.4166090478317632       -4.8870161475417131                0           0           0
          47           1  0.74192100000000005       -4.9945278894951519       -2.0340104565712100       -5.3637933377867641                0           0           0
          48           1  0.91800800000000005       -4.1444932337840035       -1.5494186433871064       -5.5021482582152004                0           0           0
          49           1  0.83222700000000005       -3.2282710520020639       -1.9487534742795631       -5.2756413207771065                0           0           0
          50           1   1.0095200000000000       -2.5263761291139297       -1.2229645655378638       -4.8876167414936393                0           0           0
          51           1   1.4893410000000000       -2.1346070045618935       -2.1942749238058492       -5.5788651382600367                0           0           0
          52           1   1.2179240000000000       -1.3393595148097059       -1.3234802692033920       -4.7694364864778196                0           0           0
          53           1   1.0644769999999999      -0.21552645344747035       -1.6554440264766281       -5.2163787369250638                0           0           0
          54           1   1.3780330000000001       0.97227054792628653       -1.2744838172614781       -5.0275408325514173                0           0           0
          55           1   1.0451729999999999        2.1561253335319579       -1.4298667810464707       -4.8212426074956696                0           0           0
          56           1  0.79520100000000005        3.6443295682420498       -1.3661352354635703       -5.2502566246163358                0           0           0
          57           1   1.0204660000000001        4.4574010787522642       -1.5618592962636431       -4.6070704250392716                0           0           0
          58           1  0.80856499999999998        5.3538618849969684       -1.3704525990094849       -5.0271001660150674                0           0           0
          59           1   1.3538969999999999       -5.0476650574977082       -1.0656949784232115       -4.9819861139042390                0           0           0
          60           1  0.75854699999999997       -4.0575731429265751      -0.67558901597916510       -5.1861072390647633                0           0           0
          61           1  0.73175199999999996       -2.4329406170649315      -0.43102756558913491       -5.3682393833807085                0           0           0
          62           1   1.0328729999999999       -3.2222791067319854      -0.31962499915747156       -4.8589453305754500                0           0           0
          63           1  0.75083299999999997       -1.6057001453356365      -0.29593928659462598       -5.2696801846915049                0           0           0
          64           1  0.82179500000000005       -1.8856923621739319       -1.0775436780264460       -5.6609739363591940                0           0           0
          65           1  0.90665300000000004      -8.61549635870595409E-003 -0.65635483102690362       -4.8670511099775542                0           0           0
          66           1  0.88653700000000002      -0.93643931450607898      -0.30277619007060341       -4.6181444688475510                0           0           0
          67           1   1.1960150000000001       0.61434483886255542      -5.87675609916651354E-002  -5.5082222141874215                0           0           0
          68           1   1.0855290000000000        1.7628548518411131      -0.25773739060634071       -4.9770445128910064                0           0           0
          69           1  0.97821599999999997        2.8752893738163845      -0.73608329461031374       -5.2574750747252397                0           0           0
          70           1   1.4363210000000000        3.8761054464222280      -0.46321363357067113       -4.6839745391318868                0           0           0
          71           1   1.1656560000000000        5.2192449402277994      -0.35516071609578415       -4.9030883046848235                0           0           0
          72           1   1.0241950000000000       -5.1438810693572492       6.08370996312341816E-002  -5.4482950549315898                0           0           0
          73           1  0.83424600000000004       -4.6115040826128313       0.76557236360443071       -4.9654615152975481                0           0           0
          74           1   1.2242780000000000       -5.7185819510089138       0.90345103513293967       -4.8378232869555529                0           0           0
          75           1   1.2615920000000000       -3.9362024234669306       0.26546279373635162       -5.6886096849238914                0           0           0
          76           1  0.96946900000000003       -2.7364082959009557       0.42381734813870420       -5.5135359302081062                0           0           0
          77           1   1.0105480000000000       -3.3826019084742840       0.85950785355615533       -4.7510444543170225                0           0           0
          78           1   1.1696240000000000       -1.6398836301034683       0.71606593577168987       -5.3739192324606613                0           0           0
          79           1  0.91265600000000002       -2.2995559537465753        1.0213303944587153       -4.5788986674722594                0           0           0
          80           1  0.77751099999999995      -0.66829167755744567       0.45269084754747535       -5.3565253038498186                0           0           0
          81           1  0.88239800000000002       0.43343249728268418        1.0350414583345531       -5.3354877202739797                0           0           0
          82           1  0.79924200000000001        1.0774222732902539       0.44387570007308863       -4.6716480422609266                0           0           0
          83           1   1.1011640000000000        1.4542669352209732       0.81717855371246184       -5.6054726929055567                0           0           0
          84           1   1.4763390000000001        2.1766104218341376       0.88755089417040445       -4.5365764458710522                0           0           0
          85           1  0.85063500000000003        2.9573231378538551       0.18863249781705083       -4.8876354758327558                0           0           0
          86           1  0.83979999999999999        3.6440482336382019       0.20944358984341616       -5.5434647147703826                0           0           0
          87           1   1.1119710000000000        4.4783981956586576       0.66439612987290975       -5.0015162380553448                0           0           0
          88           1  0.92940100000000003       -5.4570378863292994        1.9596621785713975       -5.1009659933882023                0           0           0
          89           1  0.98624599999999996       -4.6166040804084556        2.3567437271787206       -5.6291497809397582                0           0           0
          90           1  0.88377099999999997       -3.8569949216622073        1.4232743679575179       -5.5097319797314732                0           0           0
          91           1   1.4289920000000000       -4.4197813505682317        1.7665640898143735       -4.5672515505350191                0           0           0
          92           1   1.2863240000000000       -2.6712644626159854        1.6163214375653716       -5.4871079065148365                0           0           0
          93           1  0.83280200000000004       -3.2637048427317779        1.8626510384109451       -4.5869988079611952                0           0           0
          94           1  0.91532000000000002       -1.5867300265142994        1.8508744365334246       -5.2048326938601051                0           0           0
          95           1   1.0549850000000001      -0.61748008196421900        1.4245020630218486       -5.3278108238144348                0           0           0
          96           1   1.4844250000000001       0.40446067816979170        2.1890813379259306       -5.4345829311915974                0           0           0
          97           1  0.86414400000000002        1.4744440070841112        1.8106394769295902       -5.3058671709857803                0           0           0
          98           1   1.3125690000000001        2.4413821355636802        2.2798190776638432       -5.1460967620936113                0           0           0
          99           1  0.82318199999999997        2.3803398076717421        1.2547737787398425       -5.6213951769066339                0           0           0
         100           1   1.2526790000000001        3.4002350101683714        1.2316034145780002       -5.3627073301641524                0           0           0
         101           1   1.3715560000000000        4.6933753983989206        1.9444598633703496       -5.2163649900491187                0           0           0
         102           1   1.1018300000000001       -5.2717454947330582        2.9220675875721405       -4.6590754620328259                0           0           0
         103           1   1.0932630000000001       -3.5689747056387704        2.4589109685085138       -5.3434496112134866                0           0           0
         104           1  0.91189900000000002       -4.1200420725335896        2.8847116456158393       -4.5128512851017719                0           0           0
         105           1  0.73728300000000002       -2.6132957845768425        2.6403038847845277       -5.2592593090836708                0           0           0
         106           1  0.79696199999999995       -3.3101432200255103        3.3998270683463794       -5.2523021854543988                0           0           0
         107           1   1.2884510000000000       -1.6765927330140631        2.9532635148986870       -4.9458737850668877                0           0           0
         108           1  0.90628100000000000      -0.72735046816437521        2.3969231248120497       -4.7434710170747101                0           0           0
         109           1   1.2439519999999999      -0.38582445288055744        3.3591731625358623       -5.1975969111628286                0           0           0
         110           1  0.85372000000000003      -0.78270668503262630        2.4260251789607885       -5.7189234256728838                0           0           0
         111           1  0.79320299999999999       0.61196193963178214        3.3018865371433517       -5.5977418930428264                0           0           0
         112           1  0.83657099999999995        1.1735438830605265        2.4689098432285377       -4.6466808335422236                0           0           0
         113           1  0.79898800000000003        2.9594430053707317        3.1900540877831194       -4.7857104416583889                0           0           0
         114           1  0.97961900000000002        3.5942448669785652        2.3822276426353994       -4.7884051101034881                0           0           0
         115           1  0.80490099999999998        4.3389417417631755        2.9625542917059544       -5.0316014371088329                0           0           0
         116           1  0.76785300000000001        5.2765168144236156        2.8440673446227080       -5.1957039849391844                0           0           0
         117           1  0.78729899999999997       -4.9552165110436510        4.4925156533433928       -5.4880069531579894                0           0           0
         118           1  0.86933700000000003       -5.5494931968408876        3.5900152250418298       -5.4420223348901100                0           0           0
         119           1   1.4795579999999999       -4.3756871557612609        3.5604667087085691       -5.4167849871704785                0           0           0
         120           1   1.1486650000000000       -3.1836318574549787        4.3766902722415928       -5.0845582226445920                0           0           0
         121           1  0.75789499999999999       -2.3882754940177255        3.7411296630908133       -4.9426620483640482                0           0           0
         122           1  0.80026200000000003       -2.3200639392961220        4.4446642579465951       -5.6146328691719978                0           0           0
         123           1  0.84546600000000005       -1.5244424938340986        3.9571585655764885       -5.5384413820696006                0           0           0
         124           1  0.74727200000000005       -1.2034724878543912        3.8576477804141973       -4.6779905952279499                0           0           0
         125           1   1.1842509999999999       -1.9070853663238085        4.5998966459255950       -4.6939257877645924                0           0           0
         126           1   1.0372950000000001      -0.65557321521201128        4.5175469184439567       -5.4064836106078316                0           0           0
         127           1  0.75573400000000002       0.26274288548717362        4.1590594652803663       -5.1410255255519530                0           0           0
         128           1  0.90554000000000001        1.2383501736886808        4.0852611539179158       -5.6170810264422482                0           0           0
         129           1  0.73019400000000001        1.8094035816262171        4.2144125082718080       -4.6934636048654452                0           0           0
         130           1   1.1501790000000001        2.1504662078965984        3.5479584040929097       -5.3276317456748616                0           0           0
         131           1   1.0361840000000000        3.0258127541378030        4.2480709834124415       -5.0781964981218213                0           0           0
         132           1  0.78415599999999996        3.9307190104807894        3.9055190568797951       -5.1492280130489139                0           0           0
         133           1  0.84128000000000003        4.6830215926052574        4.1796293531138975       -4.6300466874995854                0           0           0
         134           1   1.3047489999999999        4.8098606097861740        3.6862678744738258       -5.6358658797872074                0           0           0
         135           1  0.87163800000000002       -5.3696229540873350        5.3258075296982152       -5.1924951117462994                0           0           0
         136           1   1.1479109999999999       -4.3689796832556995        4.7488182335580387       -4.6955496834616142                0           0           0
         137           1  0.85967499999999997       -3.6136313653815417        5.3392341904051737       -5.1029787079218867                0           0           0
         138           1  0.80051799999999995       -4.4944008907349318        5.3877606683240948       -5.5101744534004782                0           0           0
         139           1   1.1004989999999999       -2.5984603655416807        5.4336274711424934       -5.4074806800278727                0           0           0
         140           1  0.95438500000000004       -1.5560804185284036        5.6934650030022649       -5.2013378330311770                0           0           0
         141           1  0.98720399999999997      -0.33496083734955118        5.6417562091262070       -5.5518383145287178                0           0           0
         142           1  0.86126300000000000       0.21717024765046400        5.0122345054624020       -4.8419138562701836                0           0           0
         143           1  0.79245800000000000        1.0866727777922600        4.6996517358557401       -4.8022794000785254                0           0           0
         144           1   1.2686580000000001        1.9926645930769515        4.9413337597064952       -5.3310177213618077                0           0           0
         145           1  0.86478800000000000        2.9188071146612131        5.2681479559662137       -4.8631799892234939                0           0           0
         146           1  0.73688299999999995        3.1230679601412543        5.0149133173402891       -5.7115205506527156                0           0           0
         147           1   1.4304490000000001        3.9915786095116879        4.9924112152990947       -4.9137569831968806                0           0           0
         148           1  0.76117100000000004        5.1008263503923796        5.0318413792206922       -5.0216539799837570                0           0           0
         149           1  0.81904200000000005        4.6129271605838724        4.8788932585794189        5.6734389113584314                0           0           0
         150           1  0.74355499999999997       -5.1818662862495666       -5.2285587007679473       -3.7852369530384706                0           0           0
         151           1  0.76271500000000003       -3.9054965957396472       -5.0066864622044926       -3.9558571223242032                0           0           0
         152           1  0.76898400000000000       -2.4933936923568054       -4.8061850373818196       -4.0491220336761176                0           0           0
         153           1   1.0236600000000000       -3.1912339148001836       -5.5632517580634033       -3.5262638435841178                0           0           0
         154           1  0.73077700000000001       -1.4165051613470947       -5.0722918505295747       -3.6721110550099305                0           0           0
         155           1   1.1202880000000000       -2.0401860784346542       -5.6809128658526475       -4.1915586583853557                0           0           0
         156           1  0.76807899999999996       -1.2266621089302561       -5.1513945587253893       -4.4898699137760101                0           0           0
         157           1   1.3321630000000000      -0.41020808163074829       -4.9711815016326524       -3.6592275805482615                0           0           0
         158           1  0.80179999999999996       0.66350630275359723       -4.9154763955045855       -3.9437354929878246                0           0           0
         159           1  0.94373200000000002        1.6170701924186170       -5.0665979835421826       -4.0346693585141988                0           0           0
         160           1  0.95481799999999994        3.1718830180170841       -4.6788540426803475       -4.5106863182460950                0           0           0
         161           1   1.4699640000000000        2.7731371394782371       -5.6468568298458788       -3.8614197473628558                0           0           0
         162           1   1.3309860000000000        4.2462976330682185       -5.0913558860921269       -4.0894485333426749                0           0           0
         163           1   1.1672389999999999        5.5601176065311542       -5.4970406643701626       -4.4557654568871072                0           0           0
         164           1  0.96901499999999996       -5.4399992270321995       -4.3966009183252801       -4.4226802248210468                0           0           0
         165           1   1.1382319999999999       -4.6492521921825052       -4.3853816225922229       -3.6068417585332697                0           0           0
         166           1   1.0295930000000000       -5.6938899691652347       -3.7182324235299702       -3.5813063021787244                0           0           0
         167           1  0.75638000000000005       -4.1061664860802862       -3.5504861337764337       -3.8337370580271690                0           0           0
         168           1   1.4976440000000000       -3.2679462975169864       -4.1954440335654812       -3.6172738894635335                0           0           0
         169           1   1.3677140000000001       -1.8377191490473170       -3.9926158294217400       -4.2010380641922325                0           0           0
         170           1  0.87362600000000001      -0.83038335999352242       -4.3115693530012162       -4.4448193301684711                0           0           0
         171           1  0.77448300000000003      -0.48257464587360488       -3.9090244557373781       -3.6643729646516756                0           0           0
         172           1   1.1426689999999999       0.18429038473051040       -4.1434870077198216       -4.4631317063857026                0           0           0
         173           1   1.6053649999999999        1.3745511431594712       -3.8509015919866445       -3.7911245327714771                0           0           0
         174           1  0.81254700000000002        2.3827657424743602       -4.4096719218669165       -4.0233457274940037                0           0           0
         175           1   1.5251770000000000        2.8664397980923582       -3.4534444951610470       -4.4904053782177780                0           0           0
         176           1  0.90739599999999998        3.8961183642423798       -3.9456633404383816       -4.1701842212940239                0           0           0
         177           1  0.91723800000000000        3.4659572781955088       -3.3078200492285914       -3.4538466136631127                0           0           0
         178           1  0.98055700000000001        4.9385071412395884       -4.1437594730937226       -4.2260327669351412                0           0           0
         179           1   1.4378010000000001       -4.9383611991691199       -3.2495523634282550       -4.4111697045037097                0           0           0