LAMMPS data file via write_data, version 17 Nov 2016, timestep = 0
      
  1500 atoms
      
1 atom types
  -5.7235712129999996        5.7235712129999996      xlo xhi
  -5.7235712129999996        5.7235712129999996      ylo yhi
  -5.7235712129999996        5.7235712129999996      zlo zhi
Masses
      
1 1
      
Pair Coeffs # lj/poly
      
                               1 1.0 1.0 2.025 1.25 0.2
      
Atoms # charge
      
           1           1  0.82965299999999997       -5.5475757898335107       -4.8802522591760837       -5.2649383988611236                0           0           0
           2           1   1.5413479999999999       -4.5783416651970228       -5.2705895502142965       -4.7550294667957775                0           0           0
           3           1  0.86062700000000003       -3.8012312223657903       -4.7680555758867582       -5.4885145999033886                0           0           0
           4           1   1.2325940000000000       -3.1715062765571620       -5.2163628839993335       -4.6531728496609919                0           0           0
           5           1  0.92110899999999996       -2.0813126781590947       -4.9008560049091887       -4.9112901373935438                0           0           0
           6           1   1.5043869999999999       -1.0392549028218285       -4.7484242599118085       -5.4701085028136180                0           0           0
           7           1  0.88103100000000001      -0.20342643754183509       -5.1784261369949460       -4.7459799643181384                0           0           0
           8           1  0.92227999999999999       0.28294961472125291       -4.6678320136136424       -5.4692340772169121                0           0           0
           9           1   1.5129459999999999       0.93371202146958954       -5.5204787352480000       -4.9769399789936069                0           0           0
          10           1  0.87097899999999995        2.1144026830246094       -5.5821151634270976       -4.7732171780535309                0           0           0
          11           1  0.82823300000000000        1.9346975374916635       -5.3975845986145305       -5.6975781347189089                0           0           0
          12           1   1.3333429999999999        3.0289465432374758       -5.3296535424932703       -5.5332947765918181                0           0           0
          13           1  0.81986499999999995        4.1202776941766590       -5.3088268440298938       -5.3212815424798663                0           0           0
          14           1  0.74748000000000003        3.5225042845343388       -5.5422119787535964       -4.6447280021865458                0           0           0
          15           1  0.86770400000000003        4.9122173330090888       -4.8166756461645983       -4.9827495381986040                0           0           0
          16           1  0.73948999999999998        4.6890611653688818       -5.6951877185362152       -4.7973376670951140                0           0           0
          17           1   1.1174949999999999       -4.8049884531713447       -4.1456777883645906       -5.5138717986626018                0           0           0
          18           1   1.0167780000000000       -4.0031573610163056       -4.1400438096186232       -4.6429312304494630                0           0           0
          19           1   1.0699300000000000       -2.8296650630761948       -4.0571471251631941       -4.8334093685336317                0           0           0
          20           1  0.76943799999999996       -1.9526888899474186       -4.0807703788471361       -5.3119069328217119                0           0           0
          21           1   1.0829869999999999      -0.25361421035277143       -3.7660117706398664       -5.6913956108117381                0           0           0
          22           1   1.3859269999999999       0.96650692294608476       -3.6920935707987441       -5.3569490424282291                0           0           0
          23           1  0.77240699999999995        1.1020143746991895       -4.5049792407003331       -4.6433547154748327                0           0           0
          24           1   1.1917739999999999        2.0292224769933052       -4.5418854962137578       -5.0014944588621537                0           0           0
          25           1  0.76583000000000001        1.8060232848314683       -3.5411262779963955       -4.7341731777603400                0           0           0
          26           1  0.97774899999999998        2.1589520137578004       -3.5665541039551565       -5.6200264475721848                0           0           0
          27           1  0.83108000000000004        2.9281325814795380       -4.1994109184465396       -5.3780469650938683                0           0           0
          28           1   1.2215430000000000        3.9768723971122650       -4.2769740116202959       -5.2399094660230618                0           0           0
          29           1   1.3806490000000000        5.3917607717964113       -3.8325308063030512       -5.3257468777740673                0           0           0
          30           1   1.0400879999999999       -5.1894297070564601       -2.9438541196662884       -5.6120216831786802                0           0           0
          31           1  0.77126099999999997       -4.2987123583761626       -3.2805095968450710       -5.2701457611303315                0           0           0
          32           1  0.92384800000000000       -4.2741464212572868       -2.3878930473066866       -4.9301016610979644                0           0           0
          33           1  0.88862900000000000       -2.3173797507780427       -3.1287956815465772       -4.8787995044542418                0           0           0
          34           1  0.86158199999999996       -3.0725284747445936       -2.8331012214324356       -5.5299236486170695                0           0           0
          35           1   1.1209890000000000       -1.3322546908827846       -3.3130391496334295       -5.3230934058254578                0           0           0
          36           1   1.2420370000000001      -0.20708947610464357       -2.9451118944430417       -4.7344206043444155                0           0           0
          37           1  0.88274100000000000       -1.0379327979146975       -2.3144036426912185       -5.1648017323011253                0           0           0
          38           1   1.0668899999999999       0.69958637712996019       -2.4524440652529260       -5.4185189379452225                0           0           0
          39           1   1.1892499999999999        1.8745277269789851       -2.5808109401209891       -5.0918919233414375                0           0           0
          40           1  0.78319600000000000        2.8307140335726775       -2.8162059526407628       -5.3705271782185964                0           0           0
          41           1  0.77194799999999997        2.7240724708636090       -2.2998850687850423       -4.5374431834080520                0           0           0
          42           1  0.74873199999999995        3.6631769392752798       -3.3046082093647096       -5.1938582952901244                0           0           0
          43           1   1.0263439999999999        4.5023964114859147       -3.2526577852207179       -4.7631671101146384                0           0           0
          44           1  0.81308199999999997        4.5351011359458848       -2.5177513594752607       -5.4268592484456830                0           0           0
          45           1   1.1161060000000000        3.6527151411524930       -2.3555238955200575       -4.9582339457643299                0           0           0
          46           1   1.2125560000000000        5.4057451794334206       -2.4190313244132513       -4.8850350006543302                0           0           0
          47           1  0.74192100000000005       -4.9836455063265825       -2.0360816774109356       -5.3619636622394653                0           0           0
          48           1  0.91800800000000005       -4.1451663614116185       -1.5505610971389103       -5.5030456487323232                0           0           0
          49           1  0.83222700000000005       -3.2312325691456381       -1.9445512778740137       -5.2781331256400961                0           0           0
          50           1   1.0095200000000000       -2.5258895255840392       -1.2181816013553384       -4.8848113483084807                0           0           0
          51           1   1.4893410000000000       -2.1368980112445857       -2.1866407335394684       -5.5804982302959978                0           0           0
          52           1   1.2179240000000000       -1.3371494752233266       -1.3143413489932287       -4.7732602498133758                0           0           0
          53           1   1.0644769999999999      -0.21518008255500121       -1.6510965425681476       -5.2255407557956115                0           0           0
          54           1   1.3780330000000001       0.97082976661041709       -1.2770148863458495       -5.0297598143211939                0           0           0
          55           1   1.0451729999999999        2.1545838629463185       -1.4328452153893663       -4.8223346624750008                0           0           0
          56           1  0.79520100000000005        3.6438674793979384       -1.3684126613555607       -5.2513299358670515                0           0           0
          57           1   1.0204660000000001        4.4560073176983526       -1.5644346419627402       -4.6070398772029657                0           0           0
          58           1  0.80856499999999998        5.3531403317591160       -1.3719911744547986       -5.0244033845927127                0           0           0
          59           1   1.3538969999999999       -5.0484751584067373       -1.0661871210860694       -4.9824381541414473                0           0           0
          60           1  0.75854699999999997       -4.0573702393055475      -0.67544472605888650       -5.1869429614168148                0           0           0
          61           1  0.73175199999999996       -2.4329394683472274      -0.42726679202995221       -5.3683193426060667                0           0           0
          62           1   1.0328729999999999       -3.2222971785146375      -0.31598050151277235       -4.8603840933551457                0           0           0
          63           1  0.75083299999999997       -1.6052475030748781      -0.29536029700657451       -5.2686828704139508                0           0           0
          64           1  0.82179500000000005       -1.8888244202236772       -1.0731901417428764       -5.6622855234426508                0           0           0
          65           1  0.90665300000000004      -9.29978001403242160E-003 -0.65492947128569945       -4.8697714315536960                0           0           0
          66           1  0.88653700000000002      -0.93534756652486628      -0.29779707883853224       -4.6188768655268815                0           0           0
          67           1   1.1960150000000001       0.61574848155447892      -5.84484771763991162E-002  -5.5086039022032596                0           0           0
          68           1   1.0855290000000000        1.7621071667921298      -0.25973721103195491       -4.9769727187807522                0           0           0
          69           1  0.97821599999999997        2.8743535850539779      -0.73815588771773832       -5.2573264164370714                0           0           0
          70           1   1.4363210000000000        3.8760568009383576      -0.46522020931271069       -4.6846297729456108                0           0           0
          71           1   1.1656560000000000        5.2191330797039797      -0.35599156799365517       -4.9035379314539878                0           0           0
          72           1   1.0241950000000000       -5.1434416598479968       6.08439409891072813E-002  -5.4481255843431917                0           0           0
          73           1  0.83424600000000004       -4.6119280133906457       0.76673452355614291       -4.9659591812205299                0           0           0
          74           1   1.2242780000000000       -5.7185448311675380       0.90346202775091822       -4.8380907363694359                0           0           0
          75           1   1.2615920000000000       -3.9366224813604180       0.26702307503162892       -5.6892408654083004                0           0           0
          76           1  0.96946900000000003       -2.7367538234109663       0.42692266820730129       -5.5145359218891228                0           0           0
          77           1   1.0105480000000000       -3.3833925503001239       0.86116014806656604       -4.7513311590889149                0           0           0
          78           1   1.1696240000000000       -1.6396269026210799       0.71653442460972538       -5.3728277154707706                0           0           0
          79           1  0.91265600000000002       -2.3011666881455342        1.0205069136512810       -4.5786985295111755                0           0           0
          80           1  0.77751099999999995      -0.66752625591845316       0.45450336356978571       -5.3559862132334324                0           0           0
          81           1  0.88239800000000002       0.43466969852019144        1.0343448179967636       -5.3361733894156522                0           0           0
          82           1  0.79924200000000001        1.0788296103085955       0.44467509112683423       -4.6721640691390496                0           0           0
          83           1   1.1011640000000000        1.4552915249757303       0.81678103586380946       -5.6065522847247884                0           0           0
          84           1   1.4763390000000001        2.1765618578297730       0.88645536995889262       -4.5371154886337335                0           0           0
          85           1  0.85063500000000003        2.9569562397517988       0.18655279792105617       -4.8872927988979509                0           0           0
          86           1  0.83979999999999999        3.6437632979997456       0.20903071885613844       -5.5429962450831267                0           0           0
          87           1   1.1119710000000000        4.4783300221170066       0.66346436002608478       -5.0015175637187932                0           0           0
          88           1  0.92940100000000003       -5.4561642633984055        1.9597317855590788       -5.1009020481865157                0           0           0
          89           1  0.98624599999999996       -4.6154576911890359        2.3582648696607542       -5.6280755886429565                0           0           0
          90           1  0.88377099999999997       -3.8564759769078014        1.4266972129227531       -5.5097268911101880                0           0           0
          91           1   1.4289920000000000       -4.4192839313217993        1.7671083628887096       -4.5669271783799061                0           0           0
          92           1   1.2863240000000000       -2.6716334792592127        1.6181165309921024       -5.4865490831888737                0           0           0
          93           1  0.83280200000000004       -3.2642643093602794        1.8646938046643111       -4.5872215503661327                0           0           0
          94           1  0.91532000000000002       -1.5864819401737646        1.8513884402000862       -5.2042294342945032                0           0           0
          95           1   1.0549850000000001      -0.61662268072682380        1.4254037541853091       -5.3281358768257965                0           0           0
          96           1   1.4844250000000001       0.40708304442704524        2.1873080095418933       -5.4369902018031935                0           0           0
          97           1  0.86414400000000002        1.4768520525201598        1.8094743574555192       -5.3053385764049974                0           0           0
          98           1   1.3125690000000001        2.4428981410351067        2.2800487195640784       -5.1464277063413677                0           0           0
          99           1  0.82318199999999997        2.3810142108526389        1.2545874859151729       -5.6213985849013302                0           0           0
         100           1   1.2526790000000001        3.4007198238609675        1.2313869942784406       -5.3632310080323355                0           0           0
         101           1   1.3715560000000000        4.6936958399764475        1.9440534401957592       -5.2159733247094024                0           0           0
         102           1   1.1018300000000001       -5.2708311292707268        2.9227103989285741       -4.6597051771876901                0           0           0
         103           1   1.0932630000000001       -3.5677289858960632        2.4634942526840344       -5.3430659631846673                0           0           0
         104           1  0.91189900000000002       -4.1204276615421769        2.8855322346366172       -4.5127962674189357                0           0           0
         105           1  0.73728300000000002       -2.6130084360164703        2.6424020025028128       -5.2583849491339540                0           0           0
         106           1  0.79696199999999995       -3.3076749114689723        3.4062460663100982       -5.2498510154113118                0           0           0
         107           1   1.2884510000000000       -1.6771587701797150        2.9542679123761761       -4.9457963616641152                0           0           0
         108           1  0.90628100000000000      -0.72785168819453006        2.3958060445861236       -4.7439378438083093                0           0           0
         109           1   1.2439519999999999      -0.38504090302638971        3.3532877836898471       -5.2008009659652545                0           0           0
         110           1  0.85372000000000003      -0.78075498389012488        2.4245450261578974       -5.7202076978237653                0           0           0
         111           1  0.79320299999999999       0.61342294655447649        3.3008551505811567       -5.5988491566462519                0           0           0
         112           1  0.83657099999999995        1.1753387628302230        2.4697784261030780       -4.6487893670604663                0           0           0
         113           1  0.79898800000000003        2.9602920653858167        3.1905724426781710       -4.7853780603970204                0           0           0
         114           1  0.97961900000000002        3.5954958142786442        2.3822332999781057       -4.7884705517394703                0           0           0
         115           1  0.80490099999999998        4.3398777517672418        2.9628535654504500       -5.0318267916376334                0           0           0
         116           1  0.76785300000000001        5.2759230194854769        2.8441963846418084       -5.1958682056594236                0           0           0
         117           1  0.78729899999999997       -4.9523755763573734        4.4960266619684912       -5.4864102440957501                0           0           0
         118           1  0.86933700000000003       -5.5483486193861786        3.5913350761119851       -5.4417470270752428                0           0           0
         119           1   1.4795579999999999       -4.3744304673649879        3.5629189909140742       -5.4162939176838583                0           0           0
         120           1   1.1486650000000000       -3.1844263176327785        4.3860091106265617       -5.0834868945142908                0           0           0
         121           1  0.75789499999999999       -2.3912387665495167        3.7433887164850752       -4.9433622892105227                0           0           0
         122           1  0.80026200000000003       -2.3218083626333708        4.4467811701699205       -5.6146934800120265                0           0           0
         123           1  0.84546600000000005       -1.5291060778424264        3.9550233567022097       -5.5379277429042837                0           0           0
         124           1  0.74727200000000005       -1.2040340774890650        3.8593555807431379       -4.6776058950940325                0           0           0
         125           1   1.1842509999999999       -1.9101133742506189        4.6028364051119439       -4.6946739312924572                0           0           0
         126           1   1.0372950000000001      -0.65636592239903191        4.5075302994999902       -5.4103763894305947                0           0           0
         127           1  0.75573400000000002       0.26076501300407262        4.1581122120335667       -5.1424097764464056                0           0           0
         128           1  0.90554000000000001        1.2396673992731140        4.0847402678229336       -5.6176721451454634                0           0           0
         129           1  0.73019400000000001        1.8114474918433672        4.2124192137159238       -4.6936273878358881                0           0           0
         130           1   1.1501790000000001        2.1512953037843339        3.5474415953482712       -5.3275528155460972                0           0           0
         131           1   1.0361840000000000        3.0265061012251859        4.2480966720572795       -5.0775724994765872                0           0           0
         132           1  0.78415599999999996        3.9320183721225810        3.9070356680375582       -5.1486811449562131                0           0           0
         133           1  0.84128000000000003        4.6849330965101199        4.1812157471022218       -4.6298162733814889                0           0           0
         134           1   1.3047489999999999        4.8110015860865509        3.6874630062784401       -5.6351879224131016                0           0           0
         135           1  0.87163800000000002       -5.3665501325018630        5.3274498969950272       -5.1928138804938406                0           0           0
         136           1   1.1479109999999999       -4.3650143018719696        4.7529367834277689       -4.6937407591091924                0           0           0
         137           1  0.85967499999999997       -3.6124687383088738        5.3542424995917433       -5.0966465614969438                0           0           0
         138           1  0.80051799999999995       -4.4922397208082447        5.3892062791022788       -5.5107242991063430                0           0           0
         139           1   1.1004989999999999       -2.5965875986044198        5.4402451747140592       -5.4130096189368411                0           0           0
         140           1  0.95438500000000004       -1.5495505111334626        5.6738890515431084       -5.1924278039737723                0           0           0
         141           1  0.98720399999999997      -0.35035116745828798        5.6290484426513760       -5.5624472353227814                0           0           0
         142           1  0.86126300000000000       0.22589991426064326        5.0142384067458536       -4.8432659476459667                0           0           0
         143           1  0.79245800000000000        1.0911791939090447        4.6981900394342908       -4.7979552889046344                0           0           0
         144           1   1.2686580000000001        1.9925889258574268        4.9415665686615338       -5.3296950584684577                0           0           0
         145           1  0.86478800000000000        2.9185526052295128        5.2674245506936082       -4.8609891995754673                0           0           0
         146           1  0.73688299999999995        3.1222017817278864        5.0160309881414271       -5.7103774249629407                0           0           0
         147           1   1.4304490000000001        3.9922664369506649        4.9936449595795214       -4.9126447449107191                0           0           0
         148           1  0.76117100000000004        5.1014718270971127        5.0305876525966333       -5.0209621842592060                0           0           0
         149           1  0.81904200000000005        4.6140698529800215        4.8783915948949197        5.6745885685571729                0           0           0
         150           1  0.74355499999999997       -5.1782057801332275       -5.2286216809985842       -3.7850093604959381                0           0           0
         151           1  0.76271500000000003       -3.8974315833915432       -5.0034359653284310       -3.9553118504821994                0           0           0
         152           1  0.76898400000000000       -2.4478431580211524       -4.7718400505477359       -4.0563937427961605                0           0           0
         153           1   1.0236600000000000       -3.1894279414411923       -5.5588480060760990       -3.5150695749397607                0           0           0
         154           1  0.73077700000000001       -1.4927627915902164       -4.9055420957419678       -3.7614161789953879                0           0           0
         155           1   1.1202880000000000       -2.0153595147636705       -5.6667503506128662       -4.1850935782338796                0           0           0
         156           1  0.76807899999999996       -1.1698467076784960       -5.1595564360898596       -4.4928335341522843                0           0           0
         157           1   1.3321630000000000      -0.46944210150054211       -4.9668061988076309       -3.6795897661519104                0           0           0
         158           1  0.80179999999999996       0.67044380890090594       -4.9382079586651582       -3.9335341915461157                0           0           0
         159           1  0.94373200000000002        1.6245628717806726       -5.0664887699212038       -4.0316858345634197                0           0           0
         160           1  0.95481799999999994        3.1711837967782870       -4.6790223762697636       -4.5095321012800929                0           0           0
         161           1   1.4699640000000000        2.7718462964784774       -5.6476284467412379       -3.8587763532472739                0           0           0
         162           1   1.3309860000000000        4.2468159258807692       -5.0920456335361175       -4.0888834892328081                0           0           0
         163           1   1.1672389999999999        5.5651799086052325       -5.4973604945322858       -4.4561787877735153                0           0           0
         164           1  0.96901499999999996       -5.4366107410046300       -4.3991417305373925       -4.4219633773065725                0           0           0
         165           1   1.1382319999999999       -4.6430129067912347       -4.3875814615753175       -3.6082574712624145                0           0           0
         166           1   1.0295930000000000       -5.6917348931043632       -3.7206576928892225       -3.5822404704447566                0           0           0
         167           1  0.75638000000000005       -4.0952936013687156       -3.5636173897339560       -3.8332468394430377                0           0           0
         168           1   1.4976440000000000       -3.2469720903916426       -4.2013172144834439       -3.6124038966391816                0           0           0
         169           1   1.3677140000000001       -1.7374154339353400       -4.0009322895301800       -4.2368256822245192                0           0           0
         170           1  0.87362600000000001      -0.74564097118220385       -3.9544410375204615       -4.7324401051098404                0           0           0
         171           1  0.77448300000000003      -0.48507700947763865       -3.9222523507416387       -3.6446867027337904                0           0           0
         172           1   1.1426689999999999       0.20171704582685379       -4.1808257382866945       -4.4328151665817401                0           0           0
         173           1   1.6053649999999999        1.3752490097467591       -3.8476085041121082       -3.7822325109264243                0           0           0
         174           1  0.81254700000000002        2.3825833341742424       -4.4086316232186658       -4.0211834623111145                0           0           0
         175           1   1.5251770000000000        2.8621550158719753       -3.4532455778041036       -4.4889991162330096                0           0           0
         176           1  0.90739599999999998        3.8950067059095588       -3.9458540285193791       -4.1707764028808718                0           0           0
         177           1  0.91723800000000000        3.4661537011157133       -3.3082604650400524       -3.4536618847685037                0           0           0
         178           1  0.98055700000000001        4.9393767469562526       -4.1447374008272488       -4.2252012131965895                0           0           0
         179           1   1.4378010000000001       -4.9291691593413889       -3.2547875337570789       -4.4092091261575881                0           0           0