LAMMPS data file via write_data, version 17 Nov 2016, timestep = 0
      
  1500 atoms
      
1 atom types
  -5.7235712129999996        5.7235712129999996      xlo xhi
  -5.7235712129999996        5.7235712129999996      ylo yhi
  -5.7235712129999996        5.7235712129999996      zlo zhi
Masses
      
1 1
      
Pair Coeffs # lj/poly
      
                               1 1.0 1.0 2.025 1.25 0.2
      
Atoms # charge
      
           1           1  0.82965299999999997       -5.5506404318329112       -4.8784657902492352       -5.2654753193030421                0           0           0
           2           1   1.5413479999999999       -4.5829084120515535       -5.2680108213332382       -4.7570456868627087                0           0           0
           3           1  0.86062700000000003       -3.8075219798292839       -4.7606180050630185       -5.4905992299232027                0           0           0
           4           1   1.2325940000000000       -3.1797290650488641       -5.2255488011998867       -4.6621763675568717                0           0           0
           5           1  0.92110899999999996       -2.0892125776207804       -4.8907622855494273       -4.9000320004909135                0           0           0
           6           1   1.5043869999999999       -1.0444618738817182       -4.7162160659160577       -5.4643042393580004                0           0           0
           7           1  0.88103100000000001      -0.20791618816715030       -5.1783091018223733       -4.7492741948117345                0           0           0
           8           1  0.92227999999999999       0.29109982580415839       -4.6641110557945966       -5.4648164332597471                0           0           0
           9           1   1.5129459999999999       0.93552974079288553       -5.5169820039175361       -4.9728206454951236                0           0           0
          10           1  0.87097899999999995        2.1168253653016196       -5.5718218058721449       -4.7658985564875564                0           0           0
          11           1  0.82823300000000000        1.9363477980160173       -5.3898981099294216       -5.6909716305079341                0           0           0
          12           1   1.3333429999999999        3.0337235492969050       -5.3192862982257596       -5.5222260319877785                0           0           0
          13           1  0.81986499999999995        4.1235423044491064       -5.3036718546459021       -5.3197429511127989                0           0           0
          14           1  0.74748000000000003        3.5252835628293795       -5.5409228310736705       -4.6382367278892591                0           0           0
          15           1  0.86770400000000003        4.9139468845274372       -4.8151303464135511       -4.9814442362624867                0           0           0
          16           1  0.73948999999999998        4.6889607324744489       -5.6943878472453093       -4.7961517620665903                0           0           0
          17           1   1.1174949999999999       -4.8124140798223944       -4.1457798241614334       -5.5257347520428830                0           0           0
          18           1   1.0167780000000000       -4.0290906452003998       -4.1288559447049646       -4.6468425570791130                0           0           0
          19           1   1.0699300000000000       -2.8756733002735357       -4.0584699962199604       -4.8554506966778384                0           0           0
          20           1  0.76943799999999996       -1.9769763231304252       -4.0759596887817198       -5.2999680063072443                0           0           0
          21           1   1.0829869999999999      -0.23792187612337212       -3.7547004016111210       -5.6615016064094021                0           0           0
          22           1   1.3859269999999999       0.97900881948110019       -3.6850942752663047       -5.3568583507425203                0           0           0
          23           1  0.77240699999999995        1.0818630983121187       -4.4964483906568633       -4.6475013625729442                0           0           0
          24           1   1.1917739999999999        2.0216889751491429       -4.5355069570672546       -4.9969167102167740                0           0           0
          25           1  0.76583000000000001        1.8130184612918105       -3.5347999011209952       -4.7326813073027862                0           0           0
          26           1  0.97774899999999998        2.1637287826222202       -3.5643884794243643       -5.6205203311757508                0           0           0
          27           1  0.83108000000000004        2.9265294674902851       -4.1986834742306129       -5.3750935286852144                0           0           0
          28           1   1.2215430000000000        3.9777032995815365       -4.2724958395026400       -5.2364181436358148                0           0           0
          29           1   1.3806490000000000        5.3889167687185502       -3.8295990323583320       -5.3274343412156746                0           0           0
          30           1   1.0400879999999999       -5.1908056564870639       -2.9428156766733449       -5.6172146048277654                0           0           0
          31           1  0.77126099999999997       -4.3040455231868986       -3.2792541422817205       -5.2706452919289921                0           0           0
          32           1  0.92384800000000000       -4.2902755992725190       -2.3811401181362326       -4.9337042550530255                0           0           0
          33           1  0.88862900000000000       -2.3306280498721139       -3.1318517419535032       -4.8730571163703598                0           0           0
          34           1  0.86158199999999996       -3.0752679022819835       -2.8333828006875303       -5.5380142871436053                0           0           0
          35           1   1.1209890000000000       -1.3113799718291332       -3.3538953113633005       -5.2632295005046874                0           0           0
          36           1   1.2420370000000001      -0.20177238391811514       -2.9247787564394625       -4.7206489629377471                0           0           0
          37           1  0.88274100000000000       -1.0394072748630210       -2.3272861320298412       -5.1684558971789096                0           0           0
          38           1   1.0668899999999999       0.70571425340729643       -2.4480376135856505       -5.4160873633103375                0           0           0
          39           1   1.1892499999999999        1.8803693369069086       -2.5772805641090657       -5.0903072597640593                0           0           0
          40           1  0.78319600000000000        2.8362714521845422       -2.8148036229909330       -5.3701135526627839                0           0           0
          41           1  0.77194799999999997        2.7291400196732365       -2.2988561602219817       -4.5330164453949777                0           0           0
          42           1  0.74873199999999995        3.6625397945234379       -3.3000880184310808       -5.1954519032608246                0           0           0
          43           1   1.0263439999999999        4.5012085093947771       -3.2478481985570320       -4.7633230288128114                0           0           0
          44           1  0.81308199999999997        4.5368719208242769       -2.5167657958626251       -5.4308485092042096                0           0           0
          45           1   1.1161060000000000        3.6561774835970198       -2.3517938467663697       -4.9578276136802577                0           0           0
          46           1   1.2125560000000000        5.4061314681498072       -2.4153416013620168       -4.8878851044599507                0           0           0
          47           1  0.74192100000000005       -4.9971449757135522       -2.0323275599743651       -5.3644048133156659                0           0           0
          48           1  0.91800800000000005       -4.1448696749233509       -1.5467297604326937       -5.5035544575719513                0           0           0
          49           1  0.83222700000000005       -3.2285087045878624       -1.9458931435978757       -5.2771701597904395                0           0           0
          50           1   1.0095200000000000       -2.5266293209621384       -1.2202371285734941       -4.8898314886611312                0           0           0
          51           1   1.4893410000000000       -2.1343284883015103       -2.1916992406888385       -5.5801852317623366                0           0           0
          52           1   1.2179240000000000       -1.3384488155989427       -1.3189077189085738       -4.7727488147535686                0           0           0
          53           1   1.0644769999999999      -0.21484390166428646       -1.6531327301147600       -5.2183016941291029                0           0           0
          54           1   1.3780330000000001       0.97280505464611888       -1.2738242782804923       -5.0292941156289492                0           0           0
          55           1   1.0451729999999999        2.1562446614537674       -1.4299633832709393       -4.8204171569953180                0           0           0
          56           1  0.79520100000000005        3.6449106747925946       -1.3650699814827432       -5.2515451667169186                0           0           0
          57           1   1.0204660000000001        4.4583931443550959       -1.5602873333681861       -4.6098123028739373                0           0           0
          58           1  0.80856499999999998        5.3541548431505674       -1.3692670392663411       -5.0299484717118910                0           0           0
          59           1   1.3538969999999999       -5.0480091063340513       -1.0641091159479430       -4.9822384842163547                0           0           0
          60           1  0.75854699999999997       -4.0587370814575445      -0.67302311336497134       -5.1880670040425141                0           0           0
          61           1  0.73175199999999996       -2.4328757120433568      -0.42860055312565581       -5.3712940760076116                0           0           0
          62           1   1.0328729999999999       -3.2229018654432231      -0.31716961033746482       -4.8635339896960001                0           0           0
          63           1  0.75083299999999997       -1.6050774913676289      -0.29426925767964374       -5.2727727053555746                0           0           0
          64           1  0.82179500000000005       -1.8864492448988259       -1.0752855819902916       -5.6633373741935262                0           0           0
          65           1  0.90665300000000004      -8.03217652532151050E-003 -0.65519690015854604       -4.8690442836983463                0           0           0
          66           1  0.88653700000000002      -0.93590668839319591      -0.30100543266371549       -4.6205548390382543                0           0           0
          67           1   1.1960150000000001       0.61438263063229215      -5.80794814050262787E-002  -5.5111260032659342                0           0           0
          68           1   1.0855290000000000        1.7631343344888748      -0.25770643918844627       -4.9778141331102299                0           0           0
          69           1  0.97821599999999997        2.8747594979246163      -0.73566724041769849       -5.2572039357157063                0           0           0
          70           1   1.4363210000000000        3.8768216419536934      -0.46207671914095627       -4.6855372478724533                0           0           0
          71           1   1.1656560000000000        5.2199024838878501      -0.35388956916348135       -4.9039244033391762                0           0           0
          72           1   1.0241950000000000       -5.1431853535771799       6.21698486464898892E-002  -5.4493215268797535                0           0           0
          73           1  0.83424600000000004       -4.6108453438049199       0.76740663259947883       -4.9664827556129838                0           0           0
          74           1   1.2242780000000000       -5.7168081077311355       0.90541799580089677       -4.8382814488707693                0           0           0
          75           1   1.2615920000000000       -3.9357890306668324       0.26798161938613418       -5.6902549679538792                0           0           0
          76           1  0.96946900000000003       -2.7336736538335433       0.42746557953358533       -5.5155108128376318                0           0           0
          77           1   1.0105480000000000       -3.3798352237879148       0.86160139549370651       -4.7534322128177857                0           0           0
          78           1   1.1696240000000000       -1.6361911532549076       0.71792263149439339       -5.3781320518152160                0           0           0
          79           1  0.91265600000000002       -2.2971091076773371        1.0244824120999745       -4.5857557655439836                0           0           0
          80           1  0.77751099999999995      -0.66387109465127470       0.45462717295995869       -5.3580031665079062                0           0           0
          81           1  0.88239800000000002       0.43344500078581127        1.0319425571788798       -5.3372995835865371                0           0           0
          82           1  0.79924200000000001        1.0776873708118799       0.44216432803176442       -4.6746275230455812                0           0           0
          83           1   1.1011640000000000        1.4545002287803941       0.81734853826852483       -5.6086966459411336                0           0           0
          84           1   1.4763390000000001        2.1778994888346395       0.88723940046565009       -4.5392911419855180                0           0           0
          85           1  0.85063500000000003        2.9586405854098832       0.18870664529318404       -4.8886768662759339                0           0           0
          86           1  0.83979999999999999        3.6446413496210770       0.21121069344794918       -5.5450157599992140                0           0           0
          87           1   1.1119710000000000        4.4795752996928186       0.66569231702813170       -5.0020266528458706                0           0           0
          88           1  0.92940100000000003       -5.4553065984730091        1.9616270499901907       -5.1019092433914839                0           0           0
          89           1  0.98624599999999996       -4.6149533011366550        2.3600494070552713       -5.6281694908192152                0           0           0
          90           1  0.88377099999999997       -3.8544883968549755        1.4268600464328225       -5.5106721653825765                0           0           0
          91           1   1.4289920000000000       -4.4175887618202623        1.7678560565337582       -4.5672531355390582                0           0           0
          92           1   1.2863240000000000       -2.6671279379483632        1.6215886607384897       -5.4941849467639798                0           0           0
          93           1  0.83280200000000004       -3.2621775994528650        1.8648122136154504       -4.5944071344493551                0           0           0
          94           1  0.91532000000000002       -1.5842155102372084        1.8535751737183199       -5.2109770647750526                0           0           0
          95           1   1.0549850000000001      -0.61641272021756421        1.4258503632104409       -5.3324514995134997                0           0           0
          96           1   1.4844250000000001       0.40798217689718275        2.1837563029886500       -5.4341888624214594                0           0           0
          97           1  0.86414400000000002        1.4789708355880808        1.8072631073477989       -5.3074298449654878                0           0           0
          98           1   1.3125690000000001        2.4443265374526622        2.2778627353407064       -5.1477453818445778                0           0           0
          99           1  0.82318199999999997        2.3807098120307693        1.2564826545270957       -5.6279089838162459                0           0           0
         100           1   1.2526790000000001        3.4006239875838151        1.2330589822198901       -5.3644717980013299                0           0           0
         101           1   1.3715560000000000        4.6948535574810286        1.9465377155466461       -5.2174511139954767                0           0           0
         102           1   1.1018300000000001       -5.2685300030609223        2.9244135931251911       -4.6602763120582971                0           0           0
         103           1   1.0932630000000001       -3.5657008507537169        2.4632700081651393       -5.3475332396785626                0           0           0
         104           1  0.91189900000000002       -4.1180973885961247        2.8872428689818435       -4.5171828410296548                0           0           0
         105           1  0.73728300000000002       -2.6086945530679020        2.6437479109956215       -5.2639839556673422                0           0           0
         106           1  0.79696199999999995       -3.3096220562729948        3.4052023952698605       -5.2570185862173062                0           0           0
         107           1   1.2884510000000000       -1.6715151494206033        2.9548100640413075       -4.9518968365886513                0           0           0
         108           1  0.90628100000000000      -0.72418615302964451        2.3941059722341578       -4.7444245656725279                0           0           0
         109           1   1.2439519999999999      -0.38149106406999689        3.3543920665005711       -5.1904991030943552                0           0           0
         110           1  0.85372000000000003      -0.78972477036605149        2.4276007803933393       -5.7194276925922489                0           0           0
         111           1  0.79320299999999999       0.61153768475306070        3.2933338403865946       -5.5605033712883900                0           0           0
         112           1  0.83657099999999995        1.1792849346497780        2.4629472503961676       -4.6494363832926204                0           0           0
         113           1  0.79898800000000003        2.9595013224996656        3.1893739815564572       -4.7822583044636122                0           0           0
         114           1  0.97961900000000002        3.5973159715291416        2.3818629970868717       -4.7893919485816125                0           0           0
         115           1  0.80490099999999998        4.3411998651350476        2.9644510481106643       -5.0321579107570900                0           0           0
         116           1  0.76785300000000001        5.2777721626198737        2.8463301770551830       -5.1968802898216291                0           0           0
         117           1  0.78729899999999997       -4.9497705266706014        4.4994401882311941       -5.4841832118533134                0           0           0
         118           1  0.86933700000000003       -5.5473875737581135        3.5927059266730534       -5.4425345823742886                0           0           0
         119           1   1.4795579999999999       -4.3742983886299864        3.5645871822911328       -5.4203094665110063                0           0           0
         120           1   1.1486650000000000       -3.1679501732676454        4.3817059871599557       -5.0937915854011129                0           0           0
         121           1  0.75789499999999999       -2.3790477092207167        3.7425654506374819       -4.9438718337062753                0           0           0
         122           1  0.80026200000000003       -2.3020430564608865        4.4607471929606177       -5.6347520162080942                0           0           0
         123           1  0.84546600000000005       -1.5164178066690477        3.9647152672672750       -5.5383599019953671                0           0           0
         124           1  0.74727200000000005       -1.1986311035350532        3.8601489471683905       -4.6763068771184928                0           0           0
         125           1   1.1842509999999999       -1.9042405543429628        4.6041162152800048       -4.7019919046910879                0           0           0
         126           1   1.0372950000000001      -0.63951343425933072        4.5063255457757183       -5.4097448359955518                0           0           0
         127           1  0.75573400000000002       0.28358179647711168        4.1535687115470203       -5.1203369920116453                0           0           0
         128           1  0.90554000000000001        1.2310664376230447        4.0971643813230401       -5.5698153458296815                0           0           0
         129           1  0.73019400000000001        1.8167157258892015        4.2079823340411764       -4.6915454015794840                0           0           0
         130           1   1.1501790000000001        2.1510549812655952        3.5471928105841890       -5.3257164418768168                0           0           0
         131           1   1.0361840000000000        3.0256845537985733        4.2491380776711658       -5.0724778290019987                0           0           0
         132           1  0.78415599999999996        3.9328917323996038        3.9120517080699493       -5.1475579788625732                0           0           0
         133           1  0.84128000000000003        4.6868020009032705        4.1854607911364159       -4.6288209317472369                0           0           0
         134           1   1.3047489999999999        4.8121209555733024        3.6907845930639258       -5.6338907451847415                0           0           0
         135           1  0.87163800000000002       -5.3661378779154507        5.3296061428045682       -5.1944925056931357                0           0           0
         136           1   1.1479109999999999       -4.3577142105166740        4.7497009195841429       -4.6930861368320507                0           0           0
         137           1  0.85967499999999997       -3.6026936348642922        5.3410553228548370       -5.1007251620285112                0           0           0
         138           1  0.80051799999999995       -4.4896680176439379        5.3874264766956212       -5.5077302046168155                0           0           0
         139           1   1.1004989999999999       -2.5830976800649270        5.4423451722748108       -5.4192343748024649                0           0           0
         140           1  0.95438500000000004       -1.5378262034129335        5.6912713521915030       -5.1928581553827859                0           0           0
         141           1  0.98720399999999997      -0.38572963871479082        5.6332621611349136       -5.5808666309270416                0           0           0
         142           1  0.86126300000000000       0.23437257120514854        5.0128145256418222       -4.8288668660186937                0           0           0
         143           1  0.79245800000000000        1.0946782265886759        4.6894936627726693       -4.7684326082432946                0           0           0
         144           1   1.2686580000000001        1.9895056414433956        4.9482658356681455       -5.3155021708219223                0           0           0
         145           1  0.86478800000000000        2.9179675884529139        5.2716256509077795       -4.8552544074918229                0           0           0
         146           1  0.73688299999999995        3.1411647727681586        5.0124106485153828       -5.6955075943865445                0           0           0
         147           1   1.4304490000000001        3.9912084426971148        4.9957265112432800       -4.9144603093796766                0           0           0
         148           1  0.76117100000000004        5.1016237093811672        5.0310066970549627       -5.0206320110356781                0           0           0
         149           1  0.81904200000000005        4.6146474117412559        4.8796308626041540        5.6743060580658522                0           0           0
         150           1  0.74355499999999997       -5.1769473031831597       -5.2325440897108431       -3.7833411874452234                0           0           0
         151           1  0.76271500000000003       -3.9019386668383476       -5.0048146267992086       -3.9588495001734909                0           0           0
         152           1  0.76898400000000000       -2.4829068047021310       -4.8025089995074124       -4.0464410378986218                0           0           0
         153           1   1.0236600000000000       -3.1868565408417688       -5.5481760576915695       -3.5172934366960291                0           0           0
         154           1  0.73077700000000001       -1.4878206602159230       -4.8789304079185651       -3.7868918107595340                0           0           0
         155           1   1.1202880000000000       -2.0081155773569201       -5.6686049314132925       -4.1892752326612932                0           0           0
         156           1  0.76807899999999996       -1.1602020771945911       -5.1779538439924684       -4.4985837846646319                0           0           0
         157           1   1.3321630000000000      -0.45027237124454267       -4.9771255061540769       -3.6647433638335891                0           0           0
         158           1  0.80179999999999996       0.65266850756981309       -4.9202581151073579       -3.9452216685290464                0           0           0
         159           1  0.94373200000000002        1.6120224432563113       -5.0579936709347946       -4.0273720710776910                0           0           0
         160           1  0.95481799999999994        3.1740868829275275       -4.6751840638164746       -4.5029276935774565                0           0           0
         161           1   1.4699640000000000        2.7744488676182737       -5.6441440418840889       -3.8537302965511309                0           0           0
         162           1   1.3309860000000000        4.2493475529422096       -5.0895471588527599       -4.0862320067090856                0           0           0
         163           1   1.1672389999999999        5.5654828603088795       -5.4982442869777444       -4.4558718716351597                0           0           0
         164           1  0.96901499999999996       -5.4396476631745978       -4.3956354815852281       -4.4235928029888925                0           0           0
         165           1   1.1382319999999999       -4.6491988423407484       -4.3851012344754441       -3.6082061336428208                0           0           0
         166           1   1.0295930000000000       -5.6938458739166968       -3.7170514634218166       -3.5813586119083585                0           0           0
         167           1  0.75638000000000005       -4.1060346772869902       -3.5505885808006008       -3.8349422723977811                0           0           0
         168           1   1.4976440000000000       -3.2665874517861697       -4.1957592769773315       -3.6192460820931101                0           0           0
         169           1   1.3677140000000001       -1.8473679294050962       -3.9707133362026790       -4.1979572276869224                0           0           0
         170           1  0.87362600000000001      -0.84553915346827857       -4.2990307248420550       -4.4447254596393240                0           0           0
         171           1  0.77448300000000003      -0.48929934134211450       -3.9084218441649070       -3.6622462540788723                0           0           0
         172           1   1.1426689999999999       0.17349135853755460       -4.1516754697888887       -4.4585853588402617                0           0           0
         173           1   1.6053649999999999        1.3715452689354928       -3.8464641052762669       -3.7886368333621565                0           0           0
         174           1  0.81254700000000002        2.3814305291694851       -4.4091040241139909       -4.0188925412901177                0           0           0
         175           1   1.5251770000000000        2.8649744557648749       -3.4514694977119995       -4.4871188147984338                0           0           0
         176           1  0.90739599999999998        3.8963465097889554       -3.9425540440440501       -4.1676972526584501                0           0           0
         177           1  0.91723800000000000        3.4662706207866378       -3.3059964820500634       -3.4516307106087618                0           0           0
         178           1  0.98055700000000001        4.9386655577331595       -4.1412630668313799       -4.2253787776304801                0           0           0
         179           1   1.4378010000000001       -4.9390463350031943       -3.2477810791712853       -4.4113155342636157                0           0           0