LAMMPS data file via write_data, version 17 Nov 2016, timestep = 0
      
  1500 atoms
      
1 atom types
  -5.7235712129999996        5.7235712129999996      xlo xhi
  -5.7235712129999996        5.7235712129999996      ylo yhi
  -5.7235712129999996        5.7235712129999996      zlo zhi
Masses
      
1 1
      
Pair Coeffs # lj/poly
      
                               1 1.0 1.0 2.025 1.25 0.2
      
Atoms # charge
      
           1           1  0.82965299999999997       -5.5498442291094561       -4.8784736648000306       -5.2655613745069560                0           0           0
           2           1   1.5413479999999999       -4.5858213119882727       -5.2695375190904095       -4.7549793050018412                0           0           0
           3           1  0.86062700000000003       -3.8111844024262362       -4.7643302338795923       -5.4936304434910257                0           0           0
           4           1   1.2325940000000000       -3.1856273571699587       -5.2229031194016819       -4.6638197595192112                0           0           0
           5           1  0.92110899999999996       -2.0861422440557464       -4.8925863092107749       -4.8998263356233931                0           0           0
           6           1   1.5043869999999999       -1.0406571147827393       -4.7237092049413310       -5.4748539335843489                0           0           0
           7           1  0.88103100000000001      -0.20571008408096070       -5.1589574858952592       -4.7420953285517102                0           0           0
           8           1  0.92227999999999999       0.29271917596426800       -4.6667463336462287       -5.4715301049956588                0           0           0
           9           1   1.5129459999999999       0.93423072883157321       -5.5233380575743789       -4.9843649163893824                0           0           0
          10           1  0.87097899999999995        2.1132716941958289       -5.5801022791626824       -4.7755867590012775                0           0           0
          11           1  0.82823300000000000        1.9372746435372736       -5.3940731204392893       -5.7000802692782839                0           0           0
          12           1   1.3333429999999999        3.0315499689288181       -5.3255572605572219       -5.5327999017969880                0           0           0
          13           1  0.81986499999999995        4.1228649137674509       -5.3047797761941702       -5.3231550207006721                0           0           0
          14           1  0.74748000000000003        3.5244727511145353       -5.5419926075177246       -4.6458625728762204                0           0           0
          15           1  0.86770400000000003        4.9176418204138770       -4.8171166177801004       -4.9814744182365249                0           0           0
          16           1  0.73948999999999998        4.6882136338670026       -5.6954946243192239       -4.7993964305734851                0           0           0
          17           1   1.1174949999999999       -4.8080046410351738       -4.1485368807667520       -5.5293002671372351                0           0           0
          18           1   1.0167780000000000       -4.0219512945293205       -4.1339001510454692       -4.6483592396245248                0           0           0
          19           1   1.0699300000000000       -2.8668638003865361       -4.0601424127748373       -4.8536180430779172                0           0           0
          20           1  0.76943799999999996       -1.9710810843041795       -4.0807963174929389       -5.3027975702982788                0           0           0
          21           1   1.0829869999999999      -0.23617551108417079       -3.7562149898996440       -5.6625577619385785                0           0           0
          22           1   1.3859269999999999       0.98095653896188395       -3.6843060306425097       -5.3596888422750855                0           0           0
          23           1  0.77240699999999995        1.0845586669586824       -4.5029031801295964       -4.6539952829950169                0           0           0
          24           1   1.1917739999999999        2.0251029186087921       -4.5398258073134325       -5.0012398376095764                0           0           0
          25           1  0.76583000000000001        1.8119574002815764       -3.5371193152778528       -4.7335506533365441                0           0           0
          26           1  0.97774899999999998        2.1664991198144152       -3.5633064988024277       -5.6195368190840851                0           0           0
          27           1  0.83108000000000004        2.9320282810730340       -4.2009364479178943       -5.3761386818814678                0           0           0
          28           1   1.2215430000000000        3.9863804501698752       -4.2729791095002394       -5.2338870735355449                0           0           0
          29           1   1.3806490000000000        5.3874424473296134       -3.8294343378313069       -5.3276633520480994                0           0           0
          30           1   1.0400879999999999       -5.1712032552339551       -2.9686064906521388       -5.6299633615589570                0           0           0
          31           1  0.77126099999999997       -4.2900955651117716       -3.2874927869717796       -5.2662048622796283                0           0           0
          32           1  0.92384800000000000       -4.2963458183592795       -2.3859519152449700       -4.9384503744315680                0           0           0
          33           1  0.88862900000000000       -2.3233616148376592       -3.1373716266676510       -4.8724335425275882                0           0           0
          34           1  0.86158199999999996       -3.0693208720376113       -2.8370378749824816       -5.5396313709881424                0           0           0
          35           1   1.1209890000000000       -1.3078980955353341       -3.3584128592419908       -5.2625618443533595                0           0           0
          36           1   1.2420370000000001      -0.20166329704947383       -2.9260880192240903       -4.7193226754097584                0           0           0
          37           1  0.88274100000000000       -1.0387846522050515       -2.3297593923777957       -5.1666704042434812                0           0           0
          38           1   1.0668899999999999       0.70462075217023656       -2.4476146346282115       -5.4133678383234392                0           0           0
          39           1   1.1892499999999999        1.8756544154419643       -2.5769744356061888       -5.0883977971357064                0           0           0
          40           1  0.78319600000000000        2.8225504722026535       -2.8165771413659986       -5.3724254912533018                0           0           0
          41           1  0.77194799999999997        2.7246441505663430       -2.3018070631132237       -4.5310908904653235                0           0           0
          42           1  0.74873199999999995        3.6762033963919247       -3.3141228826036855       -5.1795515616963108                0           0           0
          43           1   1.0263439999999999        4.5180472616748908       -3.2122566410169155       -4.7478166661749182                0           0           0
          44           1  0.81308199999999997        4.5536640492760405       -2.4943072601344460       -5.4182203643437052                0           0           0
          45           1   1.1161060000000000        3.6446806061638899       -2.3675264295723339       -4.9655904856082760                0           0           0
          46           1   1.2125560000000000        5.4629823863416362       -2.4246788113398225       -4.9147962606525191                0           0           0
          47           1  0.74192100000000005       -5.0611396805710607       -2.0699945837952058       -5.3055047049385307                0           0           0
          48           1  0.91800800000000005       -4.1390640061020241       -1.5509077179592703       -5.5008488589417013                0           0           0
          49           1  0.83222700000000005       -3.2250314196450849       -1.9500066663757538       -5.2747496882987130                0           0           0
          50           1   1.0095200000000000       -2.5279095401833844       -1.2231927277301402       -4.8869589706591503                0           0           0
          51           1   1.4893410000000000       -2.1317364958412477       -2.1936769301069359       -5.5789791026425322                0           0           0
          52           1   1.2179240000000000       -1.3401504438448013       -1.3223849494959552       -4.7689253403978844                0           0           0
          53           1   1.0644769999999999      -0.21573229144812789       -1.6525624428771497       -5.2147711935946681                0           0           0
          54           1   1.3780330000000001       0.97216223444351790       -1.2737514558698662       -5.0267343116170329                0           0           0
          55           1   1.0451729999999999        2.1558460056543547       -1.4305047189444364       -4.8210227686322682                0           0           0
          56           1  0.79520100000000005        3.6414229657953765       -1.3763589090857513       -5.2460547467346341                0           0           0
          57           1   1.0204660000000001        4.4328713225407839       -1.5941324129875474       -4.5989550172243385                0           0           0
          58           1  0.80856499999999998        5.3364402094569421       -1.3808828739471224       -5.0179017399236923                0           0           0
          59           1   1.3538969999999999       -5.0551245629657551       -1.0773859647261821       -4.9866212358606479                0           0           0
          60           1  0.75854699999999997       -4.0620032325043685      -0.67784321771933254       -5.1839909135610833                0           0           0
          61           1  0.73175199999999996       -2.4331937185922623      -0.43066584823037246       -5.3672974386374737                0           0           0
          62           1   1.0328729999999999       -3.2249015570316577      -0.32099264749506595       -4.8594488556645299                0           0           0
          63           1  0.75083299999999997       -1.6056307211015080      -0.29521120984376648       -5.2687187747178506                0           0           0
          64           1  0.82179500000000005       -1.8863988340299431       -1.0765194632745851       -5.6601990412312650                0           0           0
          65           1  0.90665300000000004      -8.08514665706638880E-003 -0.65428297748628683       -4.8659778162499761                0           0           0
          66           1  0.88653700000000002      -0.93650965685896281      -0.30287429217258399       -4.6169583906154585                0           0           0
          67           1   1.1960150000000001       0.61484481676272207      -5.70846313645976267E-002  -5.5076897253931572                0           0           0
          68           1   1.0855290000000000        1.7627701483877791      -0.25731010718112568       -4.9761871866430498                0           0           0
          69           1  0.97821599999999997        2.8765102604674677      -0.73835253515296273       -5.2581647952397264                0           0           0
          70           1   1.4363210000000000        3.8783249140764493      -0.47053469323837582       -4.6840140768148828                0           0           0
          71           1   1.1656560000000000        5.2189261645694085      -0.35972367970808783       -4.9047299651580687                0           0           0
          72           1   1.0241950000000000       -5.1401099918557351       5.73098336943447251E-002  -5.4428965945091186                0           0           0
          73           1  0.83424600000000004       -4.6088716142728270       0.76554921433579626       -4.9641223702900490                0           0           0
          74           1   1.2242780000000000       -5.7171873306136725       0.90194763553289015       -4.8374727477105850                0           0           0
          75           1   1.2615920000000000       -3.9352755630507854       0.26456787063918696       -5.6880520768657883                0           0           0
          76           1  0.96946900000000003       -2.7354235628941383       0.42373282383610000       -5.5134174466727979                0           0           0
          77           1   1.0105480000000000       -3.3808682205137477       0.85816678934016544       -4.7507166034625570                0           0           0
          78           1   1.1696240000000000       -1.6384785232564028       0.71673142190333916       -5.3745975506652073                0           0           0
          79           1  0.91265600000000002       -2.2981350167773442        1.0223982618837502       -4.5811628680689136                0           0           0
          80           1  0.77751099999999995      -0.66570452050098439       0.45535695560266909       -5.3565536989738032                0           0           0
          81           1  0.88239800000000002       0.43232526775355762        1.0355115617695709       -5.3355813117327751                0           0           0
          82           1  0.79924200000000001        1.0776344622315701       0.44329894047850438       -4.6705961833946024                0           0           0
          83           1   1.1011640000000000        1.4540597200948318       0.81921855366358010       -5.6050552940479026                0           0           0
          84           1   1.4763390000000001        2.1785488772231405       0.88711510194796883       -4.5374415616965598                0           0           0
          85           1  0.85063500000000003        2.9571733350068872       0.18404582816557902       -4.8854007186064035                0           0           0
          86           1  0.83979999999999999        3.6429439372908341       0.20964733241875866       -5.5403022070871586                0           0           0
          87           1   1.1119710000000000        4.4788797521897692       0.66099276697000420       -5.0017043607591889                0           0           0
          88           1  0.92940100000000003       -5.4538215141610022        1.9593009924693856       -5.0985300381604564                0           0           0
          89           1  0.98624599999999996       -4.6151648827704221        2.3562182841368084       -5.6274378992270480                0           0           0
          90           1  0.88377099999999997       -3.8554787592262025        1.4245320030082222       -5.5078104292618804                0           0           0
          91           1   1.4289920000000000       -4.4178586601395882        1.7654857656911611       -4.5640820554810997                0           0           0
          92           1   1.2863240000000000       -2.6706950784188983        1.6169351772739224       -5.4887356615439762                0           0           0
          93           1  0.83280200000000004       -3.2640893264985076        1.8620545970876252       -4.5903301929570883                0           0           0
          94           1  0.91532000000000002       -1.5861080125016400        1.8523522559003771       -5.2076084026681899                0           0           0
          95           1   1.0549850000000001      -0.61676054273450021        1.4267019019355685       -5.3304491563841712                0           0           0
          96           1   1.4844250000000001       0.40681628539832726        2.1892226530697094       -5.4373940931454374                0           0           0
          97           1  0.86414400000000002        1.4763740911459191        1.8119851415944783       -5.3062684254113321                0           0           0
          98           1   1.3125690000000001        2.4435472881594826        2.2792668550536135       -5.1458949428349907                0           0           0
          99           1  0.82318199999999997        2.3811879619028975        1.2559432269868296       -5.6224307791503323                0           0           0
         100           1   1.2526790000000001        3.4017300894543183        1.2324857131373390       -5.3634279607042519                0           0           0
         101           1   1.3715560000000000        4.6955343196792949        1.9430948412431315       -5.2146480895150980                0           0           0
         102           1   1.1018300000000001       -5.2707413487065224        2.9227575270020250       -4.6582819318937432                0           0           0
         103           1   1.0932630000000001       -3.5675583798844901        2.4609866202121697       -5.3433924677306335                0           0           0
         104           1  0.91189900000000002       -4.1202681130983816        2.8846778961053836       -4.5130684880581855                0           0           0
         105           1  0.73728300000000002       -2.6120169786378162        2.6407954928969861       -5.2595014075218671                0           0           0
         106           1  0.79696199999999995       -3.3088206717770969        3.4018522422001762       -5.2540859084422733                0           0           0
         107           1   1.2884510000000000       -1.6757724846612065        2.9546533331616534       -4.9485088638387005                0           0           0
         108           1  0.90628100000000000      -0.72714253443032373        2.3967737416771620       -4.7456217658830324                0           0           0
         109           1   1.2439519999999999      -0.38451655336907287        3.3566106662146424       -5.2015717872101401                0           0           0
         110           1  0.85372000000000003      -0.78182602087652864        2.4267681033736537       -5.7215488471601068                0           0           0
         111           1  0.79320299999999999       0.61282103653491227        3.3037563250799060       -5.6004012499060432                0           0           0
         112           1  0.83657099999999995        1.1745089950930740        2.4682420462249279       -4.6465608660105655                0           0           0
         113           1  0.79898800000000003        2.9611212090540544        3.1880416245670009       -4.7862747004813304                0           0           0
         114           1  0.97961900000000002        3.5965975479867200        2.3798354263045418       -4.7876926420378529                0           0           0
         115           1  0.80490099999999998        4.3395227916407766        2.9616159517213116       -5.0340880149659242                0           0           0
         116           1  0.76785300000000001        5.2758886140310253        2.8442370554187004       -5.1959980863547788                0           0           0
         117           1  0.78729899999999997       -4.9531978308891036        4.4935931996838701       -5.4862340579977680                0           0           0
         118           1  0.86933700000000003       -5.5488516688034206        3.5907573496391372       -5.4413570481781823                0           0           0
         119           1   1.4795579999999999       -4.3749929781968806        3.5610543696168229       -5.4167943235276432                0           0           0
         120           1   1.1486650000000000       -3.1822017374110914        4.3785096506524361       -5.0833287314482476                0           0           0
         121           1  0.75789499999999999       -2.3865481776602802        3.7429920218831185       -4.9468022317624847                0           0           0
         122           1  0.80026200000000003       -2.3199475346556295        4.4436605991315243       -5.6149198183880911                0           0           0
         123           1  0.84546600000000005       -1.5229611041889717        3.9578556524475665       -5.5416244225511457                0           0           0
         124           1  0.74727200000000005       -1.2026946464828194        3.8577779913927976       -4.6805581473296964                0           0           0
         125           1   1.1842509999999999       -1.9061469108262168        4.6007586767981934       -4.6953719968670482                0           0           0
         126           1   1.0372950000000001      -0.65100136545147169        4.5130992077642507       -5.4127437613488310                0           0           0
         127           1  0.75573400000000002       0.26487891262715113        4.1568148494903561       -5.1452126219055589                0           0           0
         128           1  0.90554000000000001        1.2410925170259972        4.0851328786783689       -5.6191093252226381                0           0           0
         129           1  0.73019400000000001        1.8128205894676119        4.2115997240022658       -4.6985396551057921                0           0           0
         130           1   1.1501790000000001        2.1532538783022552        3.5465998124783056       -5.3304561427201671                0           0           0
         131           1   1.0361840000000000        3.0256384414866897        4.2494908713674846       -5.0795186901871681                0           0           0
         132           1  0.78415599999999996        3.9308101515320786        3.9065362278474058       -5.1493043430427399                0           0           0
         133           1  0.84128000000000003        4.6839947846009160        4.1808360206632589       -4.6296169245258056                0           0           0
         134           1   1.3047489999999999        4.8104107542719952        3.6877416135157350       -5.6353722029602835                0           0           0
         135           1  0.87163800000000002       -5.3669140296865780        5.3253371097858118       -5.1925609890558837                0           0           0
         136           1   1.1479109999999999       -4.3661840876208977        4.7488863101185999       -4.6932643121712010                0           0           0
         137           1  0.85967499999999997       -3.6116151434481547        5.3415529340483587       -5.1006893653478205                0           0           0
         138           1  0.80051799999999995       -4.4916793994465909        5.3883031844769871       -5.5085792339030455                0           0           0
         139           1   1.1004989999999999       -2.5948154033489774        5.4338023083817149       -5.4089994927395573                0           0           0
         140           1  0.95438500000000004       -1.5491936694416140        5.6931492984398329       -5.2078295661795764                0           0           0
         141           1  0.98720399999999997      -0.33201374353894764        5.6412264914949031       -5.5537524500364990                0           0           0
         142           1  0.86126300000000000       0.22448187776674189        5.0105108728740930       -4.8457520604303168                0           0           0
         143           1  0.79245800000000000        1.0911354338884731        4.6963158408161387       -4.8017396536508281                0           0           0
         144           1   1.2686580000000001        1.9926527179806461        4.9429929448944918       -5.3329562567459705                0           0           0
         145           1  0.86478800000000000        2.9185644423499575        5.2694512302235985       -4.8636863600658815                0           0           0
         146           1  0.73688299999999995        3.1263582622427659        5.0167382907389673       -5.7113181269127447                0           0           0
         147           1   1.4304490000000001        3.9919780046753619        4.9931828974369203       -4.9146796680070297                0           0           0
         148           1  0.76117100000000004        5.1013611713597538        5.0304938281332223       -5.0217380121781963                0           0           0
         149           1  0.81904200000000005        4.6141872746110657        4.8803915272469336        5.6728967343552217                0           0           0
         150           1  0.74355499999999997       -5.1824013343863760       -5.2299319684291321       -3.7807353421159302                0           0           0
         151           1  0.76271500000000003       -3.9027975935939487       -5.0063662840556367       -3.9564216685625735                0           0           0
         152           1  0.76898400000000000       -2.4878338501136832       -4.8061085626318372       -4.0469775170832456                0           0           0
         153           1   1.0236600000000000       -3.1915877339453624       -5.5600510084786849       -3.5207883378361768                0           0           0
         154           1  0.73077700000000001       -1.4598136810964908       -4.9257903291494394       -3.7375434911642214                0           0           0
         155           1   1.1202880000000000       -2.0260492707367486       -5.6740908945266764       -4.1958712248201939                0           0           0
         156           1  0.76807899999999996       -1.1950266847897195       -5.1704488364309515       -4.5119265196477292                0           0           0
         157           1   1.3321630000000000      -0.42960696154843525       -4.9759461405261849       -3.6608900183916702                0           0           0
         158           1  0.80179999999999996       0.65772481075516875       -4.9187602225498619       -3.9450456879250964                0           0           0
         159           1  0.94373200000000002        1.6138889142174611       -5.0658044461424110       -4.0342830831528440                0           0           0
         160           1  0.95481799999999994        3.1759636423570701       -4.6768418866522268       -4.5092084830519656                0           0           0
         161           1   1.4699640000000000        2.7712318987604405       -5.6447419132248209       -3.8624455631257413                0           0           0
         162           1   1.3309860000000000        4.2481822579635420       -5.0913579388751975       -4.0905435026469918                0           0           0
         163           1   1.1672389999999999        5.5637793652855159       -5.5007726042721057       -4.4550581632661537                0           0           0
         164           1  0.96901499999999996       -5.4441024901771495       -4.3990468010024451       -4.4215792604446662                0           0           0
         165           1   1.1382319999999999       -4.6483866698916056       -4.3862830376736834       -3.6089170460743447                0           0           0
         166           1   1.0295930000000000       -5.6955967645284158       -3.7189337618122371       -3.5821242082098568                0           0           0
         167           1  0.75638000000000005       -4.1006273470626455       -3.5520375810156861       -3.8334312204836509                0           0           0
         168           1   1.4976440000000000       -3.2652339169059048       -4.1958039815349526       -3.6172497354637585                0           0           0
         169           1   1.3677140000000001       -1.8354895831507503       -3.9909120281838923       -4.1961618500796281                0           0           0
         170           1  0.87362600000000001      -0.83317743202198091       -4.3122177399146828       -4.4522454073502526                0           0           0
         171           1  0.77448300000000003      -0.48747977098602302       -3.9128013447980896       -3.6641129208248131                0           0           0
         172           1   1.1426689999999999       0.18149543955154002       -4.1474071810270150       -4.4599694550010529                0           0           0
         173           1   1.6053649999999999        1.3719558632613342       -3.8521206705140965       -3.7904663893241937                0           0           0
         174           1  0.81254700000000002        2.3828448684723114       -4.4117262452805495       -4.0236402988455842                0           0           0
         175           1   1.5251770000000000        2.8623173989192203       -3.4541056939634731       -4.4887345639485963                0           0           0
         176           1  0.90739599999999998        3.8978770559617502       -3.9390705473011636       -4.1698839743749732                0           0           0
         177           1  0.91723800000000000        3.4619135361479039       -3.3081539275174818       -3.4509652525371730                0           0           0
         178           1  0.98055700000000001        4.9346982018440784       -4.1366566482163565       -4.2299967749415561                0           0           0
         179           1   1.4378010000000001       -4.9318247629130498       -3.2567005478713433       -4.4111275813787394                0           0           0