LAMMPS data file via write_data, version 17 Nov 2016, timestep = 0
      
  1500 atoms
      
1 atom types
  -5.7235712129999996        5.7235712129999996      xlo xhi
  -5.7235712129999996        5.7235712129999996      ylo yhi
  -5.7235712129999996        5.7235712129999996      zlo zhi
Masses
      
1 1
      
Pair Coeffs # lj/poly
      
                               1 1.0 1.0 2.025 1.25 0.2
      
Atoms # charge
      
           1           1  0.82965299999999997       -5.5504789977201634       -4.8795172330944920       -5.2674783016768165                0           0           0
           2           1   1.5413479999999999       -4.5827261224027556       -5.2699164378659571       -4.7593152741120548                0           0           0
           3           1  0.86062700000000003       -3.8068281509227035       -4.7613133646007286       -5.4915613773691980                0           0           0
           4           1   1.2325940000000000       -3.1809581112168912       -5.2239567880551139       -4.6610462551293859                0           0           0
           5           1  0.92110899999999996       -2.0871769695880356       -4.8917102669597661       -4.8991478903893695                0           0           0
           6           1   1.5043869999999999       -1.0435546462009633       -4.7210898196940958       -5.4672235410806680                0           0           0
           7           1  0.88103100000000001      -0.20820976743164632       -5.1694934506179111       -4.7409629911448130                0           0           0
           8           1  0.92227999999999999       0.28991500649773538       -4.6677761795001294       -5.4659860213864739                0           0           0
           9           1   1.5129459999999999       0.93350800709970905       -5.5215672264978286       -4.9752374544493634                0           0           0
          10           1  0.87097899999999995        2.1112067748064876       -5.5790882791606933       -4.7673045726952417                0           0           0
          11           1  0.82823300000000000        1.9322704832036530       -5.3965828117800996       -5.6930454228720819                0           0           0
          12           1   1.3333429999999999        3.0256823315447097       -5.3275024206480239       -5.5308477426301694                0           0           0
          13           1  0.81986499999999995        4.1181194746892480       -5.3075809804398517       -5.3225832075434250                0           0           0
          14           1  0.74748000000000003        3.5221027032468957       -5.5391255411920559       -4.6438419990439073                0           0           0
          15           1  0.86770400000000003        4.9110621983263290       -4.8149854016151625       -4.9848686296360647                0           0           0
          16           1  0.73948999999999998        4.6862653222324884       -5.6940147545591477       -4.7989475233364303                0           0           0
          17           1   1.1174949999999999       -4.8094344333595158       -4.1468299823956425       -5.5252304608412866                0           0           0
          18           1   1.0167780000000000       -4.0257882353167451       -4.1320357586255785       -4.6458629492311001                0           0           0
          19           1   1.0699300000000000       -2.8725155330021415       -4.0590866769917424       -4.8554183394397512                0           0           0
          20           1  0.76943799999999996       -1.9745582807805158       -4.0777514771954602       -5.3004494267933380                0           0           0
          21           1   1.0829869999999999      -0.23760254714661677       -3.7575082049492923       -5.6613426977757877                0           0           0
          22           1   1.3859269999999999       0.97877091456534071       -3.6860446972209999       -5.3557775645169041                0           0           0
          23           1  0.77240699999999995        1.0833304260847409       -4.5008350912489359       -4.6457890366193837                0           0           0
          24           1   1.1917739999999999        2.0227202802779809       -4.5394868362790923       -4.9935794576271917                0           0           0
          25           1  0.76583000000000001        1.8107138630298953       -3.5354195522148264       -4.7303704127974004                0           0           0
          26           1  0.97774899999999998        2.1629751251286766       -3.5638641431314837       -5.6174542599707236                0           0           0
          27           1  0.83108000000000004        2.9233855267493247       -4.1991922709182337       -5.3763664710896286                0           0           0
          28           1   1.2215430000000000        3.9740735981883208       -4.2759992071771462       -5.2458129208995015                0           0           0
          29           1   1.3806490000000000        5.3926543598813126       -3.8321384020363656       -5.3302961362325716                0           0           0
          30           1   1.0400879999999999       -5.1894751149327716       -2.9403539395741425       -5.6165730219662136                0           0           0
          31           1  0.77126099999999997       -4.3022261475169108       -3.2797388000797194       -5.2740064171969490                0           0           0
          32           1  0.92384800000000000       -4.2851896531029778       -2.3837340973718888       -4.9353321833132142                0           0           0
          33           1  0.88862900000000000       -2.3282360827566233       -3.1326436598592666       -4.8719629567286553                0           0           0
          34           1  0.86158199999999996       -3.0749538893176456       -2.8336858703617893       -5.5373977714341329                0           0           0
          35           1   1.1209890000000000       -1.3096002944511316       -3.3557518003991724       -5.2624445968423199                0           0           0
          36           1   1.2420370000000001      -0.19962610595189112       -2.9269367043175691       -4.7194382708374913                0           0           0
          37           1  0.88274100000000000       -1.0380693373541128       -2.3290287280357296       -5.1663949521311476                0           0           0
          38           1   1.0668899999999999       0.70809190769446850       -2.4489564185648325       -5.4137558923549882                0           0           0
          39           1   1.1892499999999999        1.8830171147590384       -2.5769003451175432       -5.0866665419225141                0           0           0
          40           1  0.78319600000000000        2.8390682311866211       -2.8137092639647019       -5.3697566456539523                0           0           0
          41           1  0.77194799999999997        2.7366108699530649       -2.2972395558604739       -4.5346838305512769                0           0           0
          42           1  0.74873199999999995        3.6596019819015257       -3.2998300034347152       -5.1969233981267582                0           0           0
          43           1   1.0263439999999999        4.5020478608976706       -3.2554558597691514       -4.7755268441284899                0           0           0
          44           1  0.81308199999999997        4.5400280976166894       -2.5193558385045525       -5.4362370714797450                0           0           0
          45           1   1.1161060000000000        3.6618732080614436       -2.3470099598773420       -4.9666617250104803                0           0           0
          46           1   1.2125560000000000        5.4050232718201663       -2.4147526534138644       -4.8865463628273549                0           0           0
          47           1  0.74192100000000005       -4.9950741324261188       -2.0301091604580623       -5.3599322316100677                0           0           0
          48           1  0.91800800000000005       -4.1446904753056391       -1.5471985747024561       -5.5025674371493514                0           0           0
          49           1  0.83222700000000005       -3.2273363096530270       -1.9463014352458119       -5.2756433494274297                0           0           0
          50           1   1.0095200000000000       -2.5253137354153967       -1.2210162656658055       -4.8878905645004416                0           0           0
          51           1   1.4893410000000000       -2.1334179879866939       -2.1924628061609441       -5.5785260701159753                0           0           0
          52           1   1.2179240000000000       -1.3371726065864902       -1.3200054925977005       -4.7700760279153567                0           0           0
          53           1   1.0644769999999999      -0.21372181485880137       -1.6547116226328278       -5.2157039894652000                0           0           0
          54           1   1.3780330000000001       0.97268020600161886       -1.2742950327806337       -5.0266349333724030                0           0           0
          55           1   1.0451729999999999        2.1564225928536844       -1.4281949300406538       -4.8216162328235868                0           0           0
          56           1  0.79520100000000005        3.6454211974868365       -1.3581397796949339       -5.2559837065691228                0           0           0
          57           1   1.0204660000000001        4.4604380408684943       -1.5467759781145238       -4.6121232658546640                0           0           0
          58           1  0.80856499999999998        5.3580247601760043       -1.3683872999279583       -5.0316864236724070                0           0           0
          59           1   1.3538969999999999       -5.0458746396495231       -1.0597072643457466       -4.9818254967499946                0           0           0
          60           1  0.75854699999999997       -4.0561989776478189      -0.67312508916003200       -5.1866787953180848                0           0           0
          61           1  0.73175199999999996       -2.4322571371267427      -0.42949321964905351       -5.3685806858546297                0           0           0
          62           1   1.0328729999999999       -3.2212218762149445      -0.31792622878367904       -4.8588001853395451                0           0           0
          63           1  0.75083299999999997       -1.6049584160470056      -0.29620836099198034       -5.2692218090948071                0           0           0
          64           1  0.82179500000000005       -1.8851117037649314       -1.0763745896698609       -5.6616080292930011                0           0           0
          65           1  0.90665300000000004      -8.43234465949205259E-003 -0.65565856017055868       -4.8665704493468214                0           0           0
          66           1  0.88653700000000002      -0.93577462862838079      -0.30007439328272412       -4.6181087629545559                0           0           0
          67           1   1.1960150000000001       0.61510381237321177      -5.88966494888660819E-002  -5.5080280710635430                0           0           0
          68           1   1.0855290000000000        1.7635654095066311      -0.25727589349788449       -4.9775116303832947                0           0           0
          69           1  0.97821599999999997        2.8743608920749129      -0.73288245550939379       -5.2578043290276737                0           0           0
          70           1   1.4363210000000000        3.8754624993160771      -0.45685217550736557       -4.6846572133189550                0           0           0
          71           1   1.1656560000000000        5.2196713650541433      -0.35367509857185819       -4.9025536260988565                0           0           0
          72           1   1.0241950000000000       -5.1446999490440151       6.39933099174854192E-002  -5.4500751143291790                0           0           0
          73           1  0.83424600000000004       -4.6115583446175830       0.76686748624552070       -4.9651615942828826                0           0           0
          74           1   1.2242780000000000       -5.7179417248659963       0.90543910308291675       -4.8371150688065674                0           0           0
          75           1   1.2615920000000000       -3.9360261296464474       0.26726116152305313       -5.6884193752772001                0           0           0
          76           1  0.96946900000000003       -2.7361332232541602       0.42500557188723231       -5.5137795660049802                0           0           0
          77           1   1.0105480000000000       -3.3816866287640557       0.86067709889930999       -4.7505849527765012                0           0           0
          78           1   1.1696240000000000       -1.6392123675947641       0.71571885732217932       -5.3731006386305431                0           0           0
          79           1  0.91265600000000002       -2.2983269931741503        1.0230784373785502       -4.5779890750623942                0           0           0
          80           1  0.77751099999999995      -0.66714509600392802       0.45311123237920281       -5.3548650725367297                0           0           0
          81           1  0.88239800000000002       0.43410745433882880        1.0338747054169763       -5.3351554427132530                0           0           0
          82           1  0.79924200000000001        1.0778608066655728       0.44390772882066365       -4.6715561227499176                0           0           0
          83           1   1.1011640000000000        1.4548289873681117       0.81708113684332950       -5.6060776074992003                0           0           0
          84           1   1.4763390000000001        2.1761094442232860       0.88824522577721865       -4.5366006025658434                0           0           0
          85           1  0.85063500000000003        2.9583614746340885       0.19274637360884661       -4.8893186188897593                0           0           0
          86           1  0.83979999999999999        3.6454882077736102       0.21226202428090701       -5.5458156909252887                0           0           0
          87           1   1.1119710000000000        4.4798663018876574       0.66705043177125845       -5.0008543944576820                0           0           0
          88           1  0.92940100000000003       -5.4567862054606309        1.9613283608697900       -5.1008586017678148                0           0           0
          89           1  0.98624599999999996       -4.6158325583257094        2.3581658101786704       -5.6287180316600063                0           0           0
          90           1  0.88377099999999997       -3.8562887423038292        1.4251402275348912       -5.5091583592543980                0           0           0
          91           1   1.4289920000000000       -4.4195010977806852        1.7678953450778252       -4.5669248464361143                0           0           0
          92           1   1.2863240000000000       -2.6714807861638561        1.6168663908700038       -5.4864261810128090                0           0           0
          93           1  0.83280200000000004       -3.2637121765646602        1.8639056500107483       -4.5865654371456639                0           0           0
          94           1  0.91532000000000002       -1.5865984488173144        1.8498341259727065       -5.2038250902095102                0           0           0
          95           1   1.0549850000000001      -0.61663511897221923        1.4244876411236147       -5.3275087111358435                0           0           0
          96           1   1.4844250000000001       0.40684405210920094        2.1870277714559538       -5.4362429594051358                0           0           0
          97           1  0.86414400000000002        1.4767820136145451        1.8094527597001884       -5.3046719540692013                0           0           0
          98           1   1.3125690000000001        2.4426710462579742        2.2805462194714430       -5.1463641125478139                0           0           0
          99           1  0.82318199999999997        2.3808128969815243        1.2555739667727064       -5.6207630172731573                0           0           0
         100           1   1.2526790000000001        3.4008955282373190        1.2332369220680954       -5.3621085447671204                0           0           0
         101           1   1.3715560000000000        4.6940722648848237        1.9458428824306946       -5.2164081892915606                0           0           0
         102           1   1.1018300000000001       -5.2706521978206826        2.9232411467907262       -4.6582073951391241                0           0           0
         103           1   1.0932630000000001       -3.5681328769435674        2.4613390135286650       -5.3428054019202964                0           0           0
         104           1  0.91189900000000002       -4.1197786480570011        2.8858639141452240       -4.5126680457523207                0           0           0
         105           1  0.73728300000000002       -2.6131422487709015        2.6410888233098255       -5.2577801956872507                0           0           0
         106           1  0.79696199999999995       -3.3088327575430339        3.4031266432929463       -5.2509599343722524                0           0           0
         107           1   1.2884510000000000       -1.6764835494316515        2.9525604225241082       -4.9455598584441178                0           0           0
         108           1  0.90628100000000000      -0.72698593125482169        2.3948307310613650       -4.7437407344710145                0           0           0
         109           1   1.2439519999999999      -0.38489762051290910        3.3528424692600680       -5.2007265940630898                0           0           0
         110           1  0.85372000000000003      -0.78115673629531646        2.4239380157959776       -5.7197903506965817                0           0           0
         111           1  0.79320299999999999       0.61290844865244676        3.3013366058197757       -5.5983914903079981                0           0           0
         112           1  0.83657099999999995        1.1750196089176086        2.4688135352100762       -4.6480138396951318                0           0           0
         113           1  0.79898800000000003        2.9601068663841854        3.1908774712502588       -4.7851101791229951                0           0           0
         114           1  0.97961900000000002        3.5951374085390846        2.3832943510450431       -4.7888532185530845                0           0           0
         115           1  0.80490099999999998        4.3402092594883062        2.9632989637029219       -5.0300545363135329                0           0           0
         116           1  0.76785300000000001        5.2779156326243388        2.8451694068810891       -5.1952508689068528                0           0           0
         117           1  0.78729899999999997       -4.9532452043468886        4.4944113073391261       -5.4863835315040888                0           0           0
         118           1  0.86933700000000003       -5.5493501870958415        3.5908667770980198       -5.4408717191031686                0           0           0
         119           1   1.4795579999999999       -4.3749428479257126        3.5619712667807075       -5.4165472211402896                0           0           0
         120           1   1.1486650000000000       -3.1807690935060680        4.3812458551772586       -5.0851107656918604                0           0           0
         121           1  0.75789499999999999       -2.3884738659727218        3.7408710864461003       -4.9432217428962648                0           0           0
         122           1  0.80026200000000003       -2.3187081956502373        4.4459949212079746       -5.6183246158865838                0           0           0
         123           1  0.84546600000000005       -1.5264903005809574        3.9539794801678880       -5.5386387319747445                0           0           0
         124           1  0.74727200000000005       -1.2015180865057964        3.8566531375786166       -4.6781656045304638                0           0           0
         125           1   1.1842509999999999       -1.9064039835168729        4.5997519045164239       -4.6976459416263365                0           0           0
         126           1   1.0372950000000001      -0.65443862234725447        4.5076081434050028       -5.4100403934189236                0           0           0
         127           1  0.75573400000000002       0.26274559498278105        4.1566958336911917       -5.1434425806491388                0           0           0
         128           1  0.90554000000000001        1.2383419050827555        4.0864701299466297       -5.6157831954188131                0           0           0
         129           1  0.73019400000000001        1.8119941239314388        4.2108698566950089       -4.6963966687568579                0           0           0
         130           1   1.1501790000000001        2.1512299598975568        3.5472151907292400       -5.3283325676213673                0           0           0
         131           1   1.0361840000000000        3.0243352387471401        4.2503875096492560       -5.0755877833753837                0           0           0
         132           1  0.78415599999999996        3.9304489489375047        3.9090608775324220       -5.1478296949722022                0           0           0
         133           1  0.84128000000000003        4.6839330704233628        4.1832045904958903       -4.6293178671408945                0           0           0
         134           1   1.3047489999999999        4.8097037340497728        3.6872531428912048       -5.6343371256606423                0           0           0
         135           1  0.87163800000000002       -5.3667943712030119        5.3263079239078479       -5.1972542980281906                0           0           0
         136           1   1.1479109999999999       -4.3645853058854476        4.7513121565659020       -4.6939284611283787                0           0           0
         137           1  0.85967499999999997       -3.6098003241404379        5.3440740875991537       -5.1005918296314805                0           0           0
         138           1  0.80051799999999995       -4.4914721989961111        5.3873648395731735       -5.5112360795590396                0           0           0
         139           1   1.1004989999999999       -2.5904798193535572        5.4381645334557209       -5.4115270799485096                0           0           0
         140           1  0.95438500000000004       -1.5413281977644413        5.6896393645863697       -5.1995057741418593                0           0           0
         141           1  0.98720399999999997      -0.35502315875115809        5.6365016893193420       -5.5591462398952176                0           0           0
         142           1  0.86126300000000000       0.22745351032098782        5.0116331123253328       -4.8423933223197642                0           0           0
         143           1  0.79245800000000000        1.0930687697382302        4.6984365489048461       -4.7912190575463853                0           0           0
         144           1   1.2686580000000001        1.9914679525593835        4.9447172154211092       -5.3287308423247612                0           0           0
         145           1  0.86478800000000000        2.9162549265427558        5.2710501508720089       -4.8570502535362561                0           0           0
         146           1  0.73688299999999995        3.1197492133380376        5.0173071311742277       -5.7064937317449278                0           0           0
         147           1   1.4304490000000001        3.9897104911775152        4.9954692269836229       -4.9111122641695877                0           0           0
         148           1  0.76117100000000004        5.1006442355247081        5.0322033578503351       -5.0207638016917633                0           0           0
         149           1  0.81904200000000005        4.6123668324333611        4.8788117724365598        5.6760145985748736                0           0           0
         150           1  0.74355499999999997       -5.1734754807509233       -5.2345623456764363       -3.7944600600006044                0           0           0
         151           1  0.76271500000000003       -3.9034948693282963       -5.0048570488266808       -3.9586847196058725                0           0           0
         152           1  0.76898400000000000       -2.4813914035496101       -4.8037561624719025       -4.0462245168994810                0           0           0
         153           1   1.0236600000000000       -3.1874672217225548       -5.5511786901578599       -3.5180238854280637                0           0           0
         154           1  0.73077700000000001       -1.4872901936426404       -4.8821689226308473       -3.7849934158039438                0           0           0
         155           1   1.1202880000000000       -2.0120360138156288       -5.6723280310361908       -4.1917460902434511                0           0           0
         156           1  0.76807899999999996       -1.1664310804591800       -5.1777490745333523       -4.5006559078746360                0           0           0
         157           1   1.3321630000000000      -0.45064027249741567       -4.9773367278250777       -3.6614270656307668                0           0           0
         158           1  0.80179999999999996       0.65337261581059547       -4.9247902679551903       -3.9453407407646699                0           0           0
         159           1  0.94373200000000002        1.6139757631194129       -5.0632051762625707       -4.0218998939762214                0           0           0
         160           1  0.95481799999999994        3.1723662910476822       -4.6748477599120761       -4.5091302504353132                0           0           0
         161           1   1.4699640000000000        2.7730762529419692       -5.6394701028192094       -3.8559458002851676                0           0           0
         162           1   1.3309860000000000        4.2480173644295025       -5.0884298341698013       -4.0906076791030364                0           0           0
         163           1   1.1672389999999999        5.5637110165105259       -5.5011707950898394       -4.4615746970208834                0           0           0
         164           1  0.96901499999999996       -5.4376915324690698       -4.3968109415948149       -4.4250845638316187                0           0           0
         165           1   1.1382319999999999       -4.6496670411103658       -4.3860108846284573       -3.6072535012169156                0           0           0
         166           1   1.0295930000000000       -5.6919569199453814       -3.7161409565303711       -3.5810224234073753                0           0           0
         167           1  0.75638000000000005       -4.1046925625991451       -3.5528204499548255       -3.8331404252106531                0           0           0
         168           1   1.4976440000000000       -3.2648205636947911       -4.1973276051767563       -3.6184075103094302                0           0           0
         169           1   1.3677140000000001       -1.8441786207459696       -3.9733621490715576       -4.1978928681378695                0           0           0
         170           1  0.87362600000000001      -0.84224202180752794       -4.3020076980257631       -4.4477994693196150                0           0           0
         171           1  0.77448300000000003      -0.48818551282500522       -3.9098259882327220       -3.6627697042935985                0           0           0
         172           1   1.1426689999999999       0.17671294786260283       -4.1527712622841673       -4.4559098107897679                0           0           0
         173           1   1.6053649999999999        1.3744999929638340       -3.8499373638932721       -3.7852677511750228                0           0           0
         174           1  0.81254700000000002        2.3841244169738012       -4.4114954919627145       -4.0156384659922306                0           0           0
         175           1   1.5251770000000000        2.8624802841958417       -3.4509718672790437       -4.4871174290369158                0           0           0
         176           1  0.90739599999999998        3.8962930292325080       -3.9400456255250225       -4.1786503247086699                0           0           0
         177           1  0.91723800000000000        3.4745018177060203       -3.2983902819092465       -3.4602913504838448                0           0           0
         178           1  0.98055700000000001        4.9414101829062478       -4.1401692470677203       -4.2282199810345498                0           0           0
         179           1   1.4378010000000001       -4.9344990868524823       -3.2506140374809940       -4.4136448731999831                0           0           0