LAMMPS data file via write_data, version 17 Nov 2016, timestep = 0
      
  1500 atoms
      
1 atom types
  -5.7235712129999996        5.7235712129999996      xlo xhi
  -5.7235712129999996        5.7235712129999996      ylo yhi
  -5.7235712129999996        5.7235712129999996      zlo zhi
Masses
      
1 1
      
Pair Coeffs # lj/poly
      
                               1 1.0 1.0 2.025 1.25 0.2
      
Atoms # charge
      
           1           1  0.82965299999999997       -5.5526139236856320       -4.8785572955638790       -5.2643331600446830                0           0           0
           2           1   1.5413479999999999       -4.5880016534100632       -5.2705416064664652       -4.7545486678565183                0           0           0
           3           1  0.86062700000000003       -3.8162741286976773       -4.7613274999672894       -5.4924917088354857                0           0           0
           4           1   1.2325940000000000       -3.1904201374963428       -5.2228240744065904       -4.6650428046071957                0           0           0
           5           1  0.92110899999999996       -2.0951933279571207       -4.8969120468803746       -4.9005967287178169                0           0           0
           6           1   1.5043869999999999       -1.0430735306168781       -4.7227700539687500       -5.4627322032169232                0           0           0
           7           1  0.88103100000000001      -0.19853602118166425       -5.1610405862799187       -4.7445639870511291                0           0           0
           8           1  0.92227999999999999       0.29997795484598644       -4.6642364739803872       -5.4699506105596525                0           0           0
           9           1   1.5129459999999999       0.93893603109833990       -5.5227261421543288       -4.9832216556777595                0           0           0
          10           1  0.87097899999999995        2.1163504467620768       -5.5801707559056650       -4.7750373917368716                0           0           0
          11           1  0.82823300000000000        1.9350127417004233       -5.3947966961140272       -5.6988437896082855                0           0           0
          12           1   1.3333429999999999        3.0288114697883035       -5.3273200652771813       -5.5335622047710595                0           0           0
          13           1  0.81986499999999995        4.1205774671296442       -5.3057947668140297       -5.3240073931593592                0           0           0
          14           1  0.74748000000000003        3.5248820404277481       -5.5417563612376961       -4.6473568370912837                0           0           0
          15           1  0.86770400000000003        4.9115033290764032       -4.8158090710697552       -4.9834822987088714                0           0           0
          16           1  0.73948999999999998        4.6867389738239424       -5.6951196552266969       -4.7993586727984647                0           0           0
          17           1   1.1174949999999999       -4.8118991333206917       -4.1468531331312626       -5.5234885343807889                0           0           0
          18           1   1.0167780000000000       -4.0280483622591765       -4.1321909915834549       -4.6446295310299908                0           0           0
          19           1   1.0699300000000000       -2.8730260680471686       -4.0597148158084089       -4.8525376551255350                0           0           0
          20           1  0.76943799999999996       -1.9758885172449729       -4.0813295960668885       -5.2995358000457147                0           0           0
          21           1   1.0829869999999999      -0.23580063037759480       -3.7583933616133036       -5.6612984009179357                0           0           0
          22           1   1.3859269999999999       0.98400655146569971       -3.6820581954492888       -5.3609978694299976                0           0           0
          23           1  0.77240699999999995        1.0864581120304679       -4.5011325092882917       -4.6541483617080592                0           0           0
          24           1   1.1917739999999999        2.0256392055873107       -4.5396868377234885       -5.0001776000406188                0           0           0
          25           1  0.76583000000000001        1.8152974525809711       -3.5370918881724460       -4.7330323879558156                0           0           0
          26           1  0.97774899999999998        2.1672382286695573       -3.5631828922355613       -5.6199387025268299                0           0           0
          27           1  0.83108000000000004        2.9276653317433539       -4.2000041993989612       -5.3784359053172688                0           0           0
          28           1   1.2215430000000000        3.9771622861554157       -4.2743404363979440       -5.2395982894515889                0           0           0
          29           1   1.3806490000000000        5.3891475323703837       -3.8305544319941998       -5.3266063307057037                0           0           0
          30           1   1.0400879999999999       -5.1901401003176195       -2.9434789895652176       -5.6151278961196400                0           0           0
          31           1  0.77126099999999997       -4.3030412707121020       -3.2808769136209843       -5.2691393515822016                0           0           0
          32           1  0.92384800000000000       -4.2883142552921942       -2.3835687200542468       -4.9319144316217010                0           0           0
          33           1  0.88862900000000000       -2.3260363208842687       -3.1376059320112013       -4.8719622297122296                0           0           0
          34           1  0.86158199999999996       -3.0749038733798333       -2.8356884406821536       -5.5352367997520053                0           0           0
          35           1   1.1209890000000000       -1.3093838203476276       -3.3595671922547488       -5.2627575913830693                0           0           0
          36           1   1.2420370000000001      -0.20158406528893558       -2.9256204623734638       -4.7197393378428369                0           0           0
          37           1  0.88274100000000000       -1.0402601532409967       -2.3309892809302704       -5.1668127196124285                0           0           0
          38           1   1.0668899999999999       0.70718062966219097       -2.4472749841390424       -5.4135120578358142                0           0           0
          39           1   1.1892499999999999        1.8822731646613109       -2.5771820501283438       -5.0883119509071530                0           0           0
          40           1  0.78319600000000000        2.8369260803222058       -2.8159088053602677       -5.3720204614423368                0           0           0
          41           1  0.77194799999999997        2.7308878890862918       -2.3004210256923860       -4.5304044328386350                0           0           0
          42           1  0.74873199999999995        3.6640922586793039       -3.3010140174760063       -5.1968683950907728                0           0           0
          43           1   1.0263439999999999        4.5015076598047070       -3.2495994106618631       -4.7631627126397627                0           0           0
          44           1  0.81308199999999997        4.5368549981893498       -2.5171642203116571       -5.4291342055097616                0           0           0
          45           1   1.1161060000000000        3.6559282519938545       -2.3530147450989007       -4.9577895743806835                0           0           0
          46           1   1.2125560000000000        5.4063678625842151       -2.4161181789587536       -4.8862800225413281                0           0           0
          47           1  0.74192100000000005       -4.9940683945738318       -2.0333056545935770       -5.3638706111642724                0           0           0
          48           1  0.91800800000000005       -4.1446311601603689       -1.5486512391782732       -5.5018051456117876                0           0           0
          49           1  0.83222700000000005       -3.2280980841788431       -1.9478300921924241       -5.2754314193186556                0           0           0
          50           1   1.0095200000000000       -2.5266141339952424       -1.2228734020412233       -4.8878392886197686                0           0           0
          51           1   1.4893410000000000       -2.1344758146668137       -2.1940630731832962       -5.5786797468173965                0           0           0
          52           1   1.2179240000000000       -1.3394370083215597       -1.3232260375375526       -4.7695617625411852                0           0           0
          53           1   1.0644769999999999      -0.21539729657987383       -1.6543209553160976       -5.2152222177967849                0           0           0
          54           1   1.3780330000000001       0.97248285798925416       -1.2735601717185654       -5.0264772719452990                0           0           0
          55           1   1.0451729999999999        2.1565024390199596       -1.4289484006111444       -4.8207131566024302                0           0           0
          56           1  0.79520100000000005        3.6448529458823025       -1.3659707393500629       -5.2493770741290700                0           0           0
          57           1   1.0204660000000001        4.4573931997164600       -1.5618235376931837       -4.6066161420369811                0           0           0
          58           1  0.80856499999999998        5.3536869028671177       -1.3697996759931668       -5.0261793633807814                0           0           0
          59           1   1.3538969999999999       -5.0478355674363220       -1.0652246754252017       -4.9812639206842988                0           0           0
          60           1  0.75854699999999997       -4.0582401079209287      -0.67490548515091131       -5.1858311280818290                0           0           0
          61           1  0.73175199999999996       -2.4326846496831194      -0.43109938640123779       -5.3688919523295775                0           0           0
          62           1   1.0328729999999999       -3.2223828676736499      -0.31955780827470992       -4.8604532854281945                0           0           0
          63           1  0.75083299999999997       -1.6053719568598090      -0.29577231916537361       -5.2701896625478506                0           0           0
          64           1  0.82179500000000005       -1.8857655938204969       -1.0772808771576194       -5.6610878168126373                0           0           0
          65           1  0.90665300000000004      -8.10343080051012521E-003 -0.65523344088460522       -4.8667886529402624                0           0           0
          66           1  0.88653700000000002      -0.93607575471049476      -0.30319013001800865       -4.6182152461762520                0           0           0
          67           1   1.1960150000000001       0.61469744234810708      -5.78809201579932875E-002  -5.5084713125081883                0           0           0
          68           1   1.0855290000000000        1.7635257608807207      -0.25729405934859439       -4.9773351908046548                0           0           0
          69           1  0.97821599999999997        2.8760592687079871      -0.73561958637781277       -5.2573458112289879                0           0           0
          70           1   1.4363210000000000        3.8769484632664213      -0.46268758154824230       -4.6836590444584809                0           0           0
          71           1   1.1656560000000000        5.2203096706639425      -0.35423459064370011       -4.9022984367857525                0           0           0
          72           1   1.0241950000000000       -5.1431416020897291       6.14338388234854094E-002  -5.4477190420175550                0           0           0
          73           1  0.83424600000000004       -4.6102312590966115       0.76604265799635396       -4.9649437198914059                0           0           0
          74           1   1.2242780000000000       -5.7168441349020993       0.90425959506969278       -4.8369169236972969                0           0           0
          75           1   1.2615920000000000       -3.9356486158396544       0.26584885730114660       -5.6886443784390899                0           0           0
          76           1  0.96946900000000003       -2.7347281668810415       0.42415205760175745       -5.5142809701423747                0           0           0
          77           1   1.0105480000000000       -3.3804483337507762       0.85891838566953460       -4.7517164042715265                0           0           0
          78           1   1.1696240000000000       -1.6375545147989090       0.71611203122656608       -5.3761865557187418                0           0           0
          79           1  0.91265600000000002       -2.2973796477499180        1.0214467958226958       -4.5826316534974687                0           0           0
          80           1  0.77751099999999995      -0.66555360065531666       0.45371375544228165       -5.3573235923251294                0           0           0
          81           1  0.88239800000000002       0.43323930111666265        1.0351008549355853       -5.3360970003075359                0           0           0
          82           1  0.79924200000000001        1.0777062028347322       0.44343815810543052       -4.6720444384436188                0           0           0
          83           1   1.1011640000000000        1.4546591186661990       0.81799007117911327       -5.6061575591540391                0           0           0
          84           1   1.4763390000000001        2.1777429956661445       0.88790350230857662       -4.5377432624309808                0           0           0
          85           1  0.85063500000000003        2.9582361278417633       0.18859710009577402       -4.8875994758312444                0           0           0
          86           1  0.83979999999999999        3.6451967415324589       0.21045039473604721       -5.5431535536514724                0           0           0
          87           1   1.1119710000000000        4.4796344381445188       0.66491283640281296       -5.0009253230209199                0           0           0
          88           1  0.92940100000000003       -5.4556102456974020        1.9603820735389563       -5.1002222969259838                0           0           0
          89           1  0.98624599999999996       -4.6157718885582657        2.3574630932410372       -5.6278498994846720                0           0           0
          90           1  0.88377099999999997       -3.8556688705078983        1.4241468709802474       -5.5090054315674788                0           0           0
          91           1   1.4289920000000000       -4.4182644912268243        1.7664755786101987       -4.5652850731027357                0           0           0
          92           1   1.2863240000000000       -2.6703013755957858        1.6169810151179922       -5.4899033153759937                0           0           0
          93           1  0.83280200000000004       -3.2631712511654469        1.8623376708579658       -4.5910597059852734                0           0           0
          94           1  0.91532000000000002       -1.5858283758997080        1.8512154912537779       -5.2086002448516542                0           0           0
          95           1   1.0549850000000001      -0.61649606653051592        1.4255632618788772       -5.3306542257776615                0           0           0
          96           1   1.4844250000000001       0.40606353635082471        2.1890302299578268       -5.4364795439079172                0           0           0
          97           1  0.86414400000000002        1.4756978353239667        1.8111335660519581       -5.3068461236919955                0           0           0
          98           1   1.3125690000000001        2.4423658921468760        2.2799001323188808       -5.1469228678067340                0           0           0
          99           1  0.82318199999999997        2.3813409348504404        1.2554386538170954       -5.6228998573269244                0           0           0
         100           1   1.2526790000000001        3.4014556038389863        1.2326657245406416       -5.3630833232503630                0           0           0
         101           1   1.3715560000000000        4.6951355317995844        1.9446783144209672       -5.2159863052905795                0           0           0
         102           1   1.1018300000000001       -5.2699046978315423        2.9224492920068599       -4.6575837424358602                0           0           0
         103           1   1.0932630000000001       -3.5678064839008603        2.4601968452981868       -5.3446452718217277                0           0           0
         104           1  0.91189900000000002       -4.1191008242437670        2.8852832004505711       -4.5135674680548776                0           0           0
         105           1  0.73728300000000002       -2.6117534860819855        2.6405178224863608       -5.2609528145491060                0           0           0
         106           1  0.79696199999999995       -3.3102077553179985        3.4012146081967689       -5.2546386455430270                0           0           0
         107           1   1.2884510000000000       -1.6745110187228605        2.9532070884431683       -4.9488209319414747                0           0           0
         108           1  0.90628100000000000      -0.72549843285825499        2.3970332233939988       -4.7462210055005229                0           0           0
         109           1   1.2439519999999999      -0.38361356839783056        3.3593955860372304       -5.1987255410714202                0           0           0
         110           1  0.85372000000000003      -0.78257531402096259        2.4269659763213944       -5.7212373906346290                0           0           0
         111           1  0.79320299999999999       0.61334905179244092        3.3019664516118716       -5.5994363240729621                0           0           0
         112           1  0.83657099999999995        1.1742981952089711        2.4684885676009181       -4.6475287190902597                0           0           0
         113           1  0.79898800000000003        2.9604918823958180        3.1894994798145113       -4.7869473968330150                0           0           0
         114           1  0.97961900000000002        3.5955549992300551        2.3817496128150175       -4.7892273359756876                0           0           0
         115           1  0.80490099999999998        4.3403993345437346        2.9623282301902734       -5.0316912174774480                0           0           0
         116           1  0.76785300000000001        5.2783447410749957        2.8445167626748056       -5.1954913992340312                0           0           0
         117           1  0.78729899999999997       -4.9536382856137564        4.4944905828869910       -5.4865177549303965                0           0           0
         118           1  0.86933700000000003       -5.5489041289268322        3.5894472284040280       -5.4414049568113612                0           0           0
         119           1   1.4795579999999999       -4.3753712185510167        3.5614904296608518       -5.4169416090230547                0           0           0
         120           1   1.1486650000000000       -3.1805870306180219        4.3774142281383046       -5.0852231061594946                0           0           0
         121           1  0.75789499999999999       -2.3834722192240974        3.7433382336759049       -4.9448742823269374                0           0           0
         122           1  0.80026200000000003       -2.3175608204114440        4.4470249122630303       -5.6161833468828330                0           0           0
         123           1  0.84546600000000005       -1.5238147048286184        3.9574567658876418       -5.5398638572779273                0           0           0
         124           1  0.74727200000000005       -1.2031037566153291        3.8572733256367151       -4.6795824573512714                0           0           0
         125           1   1.1842509999999999       -1.9044363478212980        4.6021201531485598       -4.6947971353805924                0           0           0
         126           1   1.0372950000000001      -0.65544564111161474        4.5169648920965439       -5.4059426992220043                0           0           0
         127           1  0.75573400000000002       0.26293160973564955        4.1616800198150816       -5.1398537086322582                0           0           0
         128           1  0.90554000000000001        1.2384441261402976        4.0860918024870969       -5.6178559660737681                0           0           0
         129           1  0.73019400000000001        1.8103856774135840        4.2136224972587026       -4.6968580607883315                0           0           0
         130           1   1.1501790000000001        2.1514094635785277        3.5477138870739964       -5.3298540000556978                0           0           0
         131           1   1.0361840000000000        3.0261096812020263        4.2486813822411111       -5.0793336990882576                0           0           0
         132           1  0.78415599999999996        3.9311458480927914        3.9056168469475665       -5.1493648176433098                0           0           0
         133           1  0.84128000000000003        4.6842040409604717        4.1795195081506780       -4.6299598806953792                0           0           0
         134           1   1.3047489999999999        4.8106320445646915        3.6864606695973325       -5.6357071757536161                0           0           0
         135           1  0.87163800000000002       -5.3693908547456388        5.3261005389685145       -5.1915668670692972                0           0           0
         136           1   1.1479109999999999       -4.3665532519073764        4.7483216602551312       -4.6936628656454475                0           0           0
         137           1  0.85967499999999997       -3.6118284818437250        5.3392571604842054       -5.1019006282215296                0           0           0
         138           1  0.80051799999999995       -4.4940399474894903        5.3871618122000413       -5.5084303085503539                0           0           0
         139           1   1.1004989999999999       -2.5958320791764522        5.4362347979632748       -5.4093262413109393                0           0           0
         140           1  0.95438500000000004       -1.5519474197057166        5.6927596973903043       -5.1987790747151434                0           0           0
         141           1  0.98720399999999997      -0.34817667171098599        5.6409502438702450       -5.5603332174049074                0           0           0
         142           1  0.86126300000000000       0.22000088674438611        5.0168578565208115       -4.8441497082319511                0           0           0
         143           1  0.79245800000000000        1.0876207992977163        4.6991309806260855       -4.8029200879747620                0           0           0
         144           1   1.2686580000000001        1.9931179217621056        4.9427157140380995       -5.3325611726806832                0           0           0
         145           1  0.86478800000000000        2.9196028708843276        5.2685374718322517       -4.8633307323298922                0           0           0
         146           1  0.73688299999999995        3.1235646628258298        5.0156554466093848       -5.7120252160819627                0           0           0
         147           1   1.4304490000000001        3.9923639799599364        4.9922582612112638       -4.9134068096643375                0           0           0
         148           1  0.76117100000000004        5.1018983077074189        5.0312822730851305       -5.0211128493733712                0           0           0
         149           1  0.81904200000000005        4.6139272447711424        4.8788379544981773        5.6739564982740234                0           0           0
         150           1  0.74355499999999997       -5.1812594015537972       -5.2299496677774453       -3.7830332146627192                0           0           0
         151           1  0.76271500000000003       -3.9053628625145032       -5.0061559706986847       -3.9551640552311227                0           0           0
         152           1  0.76898400000000000       -2.4926756103644010       -4.8061398097075703       -4.0483676691593367                0           0           0
         153           1   1.0236600000000000       -3.1913129987938427       -5.5608244834381795       -3.5233058479948771                0           0           0
         154           1  0.73077700000000001       -1.4160055804626426       -5.0675612480549299       -3.6722742961073243                0           0           0
         155           1   1.1202880000000000       -2.0358527716130816       -5.6787142525839327       -4.1905680995064643                0           0           0
         156           1  0.76807899999999996       -1.2212550649438398       -5.1521942050729255       -4.4885613967858315                0           0           0
         157           1   1.3321630000000000      -0.40893198876915715       -4.9713705905378021       -3.6593967384774597                0           0           0
         158           1  0.80179999999999996       0.66606390138458327       -4.9129778679763980       -3.9419020393425543                0           0           0
         159           1  0.94373200000000002        1.6193439606625049       -5.0660499535332733       -4.0331429161318288                0           0           0
         160           1  0.95481799999999994        3.1732551836857397       -4.6779472705958911       -4.5102977616864290                0           0           0
         161           1   1.4699640000000000        2.7740424795784229       -5.6450712823381766       -3.8617116962561275                0           0           0
         162           1   1.3309860000000000        4.2473484862826059       -5.0916641575943089       -4.0893470603757134                0           0           0
         163           1   1.1672389999999999        5.5611271851332127       -5.4974230177196901       -4.4547790960775719                0           0           0
         164           1  0.96901499999999996       -5.4397276110709667       -4.3963123340420527       -4.4221548199104141                0           0           0
         165           1   1.1382319999999999       -4.6495831069045339       -4.3855664009139659       -3.6059156818776024                0           0           0
         166           1   1.0295930000000000       -5.6937388984839643       -3.7182191510138418       -3.5805711814571968                0           0           0
         167           1  0.75638000000000005       -4.1063934363971946       -3.5508998455776619       -3.8326481943312389                0           0           0
         168           1   1.4976440000000000       -3.2677539861651836       -4.1955664976509324       -3.6161169545266572                0           0           0
         169           1   1.3677140000000001       -1.8381269685268995       -3.9924024753161698       -4.2003375731026589                0           0           0
         170           1  0.87362600000000001      -0.83028841937750908       -4.3102075176197481       -4.4419412482937872                0           0           0
         171           1  0.77448300000000003      -0.48182897819438075       -3.9088632679555997       -3.6624859772060629                0           0           0
         172           1   1.1426689999999999       0.18451449140604748       -4.1438283105418172       -4.4628829041870777                0           0           0
         173           1   1.6053649999999999        1.3747661105075020       -3.8511161496692701       -3.7898068343532674                0           0           0
         174           1  0.81254700000000002        2.3840207263550628       -4.4095075526601111       -4.0223563708366443                0           0           0
         175           1   1.5251770000000000        2.8667797724053727       -3.4526439967666609       -4.4889401018414645                0           0           0
         176           1  0.90739599999999998        3.8969305887160228       -3.9448102134923628       -4.1695398894438283                0           0           0
         177           1  0.91723800000000000        3.4663346682213305       -3.3069590067138437       -3.4526409643067293                0           0           0
         178           1  0.98055700000000001        4.9387936152325764       -4.1433704444158721       -4.2256617529554026                0           0           0
         179           1   1.4378010000000001       -4.9383604027879393       -3.2490592349977860       -4.4100583776572808                0           0           0