LAMMPS data file via write_data, version 17 Nov 2016, timestep = 0
      
  1500 atoms
      
1 atom types
  -5.7235712129999996        5.7235712129999996      xlo xhi
  -5.7235712129999996        5.7235712129999996      ylo yhi
  -5.7235712129999996        5.7235712129999996      zlo zhi
Masses
      
1 1
      
Pair Coeffs # lj/poly
      
                               1 1.0 1.0 2.025 1.25 0.2
      
Atoms # charge
      
           1           1  0.82965299999999997       -5.5503587638807623       -4.8782747556281514       -5.2654101542857008                0           0           0
           2           1   1.5413479999999999       -4.5868170851674890       -5.2692568161673847       -4.7548613448640618                0           0           0
           3           1  0.86062700000000003       -3.8141807976092204       -4.7631705720959845       -5.4949468013414142                0           0           0
           4           1   1.2325940000000000       -3.1871465540143906       -5.2213401350982220       -4.6660782621917853                0           0           0
           5           1  0.92110899999999996       -2.0875780866114995       -4.8924812700261260       -4.9011635140130485                0           0           0
           6           1   1.5043869999999999       -1.0412577478517333       -4.7230947437457367       -5.4748358325777229                0           0           0
           7           1  0.88103100000000001      -0.20686265414617822       -5.1589966996184753       -4.7412024754854132                0           0           0
           8           1  0.92227999999999999       0.29136301246427720       -4.6674554781459729       -5.4714378480280157                0           0           0
           9           1   1.5129459999999999       0.93323287889897610       -5.5232676937514533       -4.9833894197234923                0           0           0
          10           1  0.87097899999999995        2.1128942303517411       -5.5798029299468590       -4.7753061714247256                0           0           0
          11           1  0.82823300000000000        1.9366230227424515       -5.3935273823702428       -5.6996097150485712                0           0           0
          12           1   1.3333429999999999        3.0308778168830504       -5.3245757484531211       -5.5320288023139579                0           0           0
          13           1  0.81986499999999995        4.1222620169532664       -5.3043144966579820       -5.3218916582667468                0           0           0
          14           1  0.74748000000000003        3.5246770221056920       -5.5417550242174087       -4.6459564286370645                0           0           0
          15           1  0.86770400000000003        4.9170413672563793       -4.8167625037714865       -4.9812059726529476                0           0           0
          16           1  0.73948999999999998        4.6880495100845305       -5.6956745969180869       -4.7988777673184719                0           0           0
          17           1   1.1174949999999999       -4.8086520886019244       -4.1484528065869153       -5.5298343981435352                0           0           0
          18           1   1.0167780000000000       -4.0225371394465013       -4.1330238582681584       -4.6489458984055831                0           0           0
          19           1   1.0699300000000000       -2.8676553186647746       -4.0590988255204250       -4.8548425115730769                0           0           0
          20           1  0.76943799999999996       -1.9712520700727256       -4.0807571936063507       -5.3037120881959039                0           0           0
          21           1   1.0829869999999999      -0.23650014513858331       -3.7565998848417355       -5.6618215350926100                0           0           0
          22           1   1.3859269999999999       0.98055909006420983       -3.6847961182989537       -5.3591346843882475                0           0           0
          23           1  0.77240699999999995        1.0838669201851001       -4.5030435830095366       -4.6531414413353378                0           0           0
          24           1   1.1917739999999999        2.0241537050367038       -4.5394888732446841       -5.0008564028807774                0           0           0
          25           1  0.76583000000000001        1.8112285980903655       -3.5367909820625716       -4.7332068626620627                0           0           0
          26           1  0.97774899999999998        2.1659645502281464       -3.5633917884323942       -5.6192943206601127                0           0           0
          27           1  0.83108000000000004        2.9313953337966776       -4.2009066727982649       -5.3752183054366593                0           0           0
          28           1   1.2215430000000000        3.9858287118471587       -4.2723665045621653       -5.2337235390651538                0           0           0
          29           1   1.3806490000000000        5.3873207979714994       -3.8290129500303500       -5.3276572195643457                0           0           0
          30           1   1.0400879999999999       -5.1717933898114188       -2.9682239908656429       -5.6305843661111377                0           0           0
          31           1  0.77126099999999997       -4.2903604201768593       -3.2870125377109267       -5.2665427180069813                0           0           0
          32           1  0.92384800000000000       -4.2956979802575965       -2.3857880070583022       -4.9384880861046092                0           0           0
          33           1  0.88862900000000000       -2.3238327233214124       -3.1368926317396633       -4.8727438414558035                0           0           0
          34           1  0.86158199999999996       -3.0705099036533006       -2.8370423018061839       -5.5405553150438314                0           0           0
          35           1   1.1209890000000000       -1.3082072929843473       -3.3584176348347787       -5.2625264838493244                0           0           0
          36           1   1.2420370000000001      -0.20133020001092294       -2.9258730571833733       -4.7192977307160886                0           0           0
          37           1  0.88274100000000000       -1.0387511626311436       -2.3299012185471137       -5.1669145707083892                0           0           0
          38           1   1.0668899999999999       0.70484898273933005       -2.4478591689129567       -5.4140754209719395                0           0           0
          39           1   1.1892499999999999        1.8754768161502504       -2.5766601422428677       -5.0878805454615508                0           0           0
          40           1  0.78319600000000000        2.8222576131318657       -2.8157877785825987       -5.3721353293677776                0           0           0
          41           1  0.77194799999999997        2.7250551538292829       -2.3007595360744419       -4.5320734976097672                0           0           0
          42           1  0.74873199999999995        3.6765047597258160       -3.3137462489918206       -5.1787590979038969                0           0           0
          43           1   1.0263439999999999        4.5185224265376807       -3.2114750464549942       -4.7477424453733441                0           0           0
          44           1  0.81308199999999997        4.5544010352561930       -2.4936583688550602       -5.4183409027097422                0           0           0
          45           1   1.1161060000000000        3.6452424807603592       -2.3669566599827694       -4.9659842404002088                0           0           0
          46           1   1.2125560000000000        5.4640399077001653       -2.4236399202271914       -4.9153238819830047                0           0           0
          47           1  0.74192100000000005       -5.0532681871755019       -2.0665554911121671       -5.3163406120213192                0           0           0
          48           1  0.91800800000000005       -4.1391343562318568       -1.5510039375873417       -5.5015461762718738                0           0           0
          49           1  0.83222700000000005       -3.2252347267304509       -1.9501605845326040       -5.2745549014763489                0           0           0
          50           1   1.0095200000000000       -2.5274079351045962       -1.2232294712078211       -4.8868597063988304                0           0           0
          51           1   1.4893410000000000       -2.1321364103211549       -2.1940372751369654       -5.5788269016758480                0           0           0
          52           1   1.2179240000000000       -1.3398273620481698       -1.3219335795028897       -4.7693356709857033                0           0           0
          53           1   1.0644769999999999      -0.21562808198220651       -1.6527219649198752       -5.2152297470895341                0           0           0
          54           1   1.3780330000000001       0.97218468759390220       -1.2738054352400177       -5.0271684240242855                0           0           0
          55           1   1.0451729999999999        2.1562397715363364       -1.4302074654533961       -4.8216136074981231                0           0           0
          56           1  0.79520100000000005        3.6419408935499220       -1.3753429326246964       -5.2467520769544045                0           0           0
          57           1   1.0204660000000001        4.4336988959348371       -1.5934171541791144       -4.5996418884786276                0           0           0
          58           1  0.80856499999999998        5.3372191129193549       -1.3796149593994418       -5.0196718133074505                0           0           0
          59           1   1.3538969999999999       -5.0542917330649226       -1.0769194608089778       -4.9866308374301802                0           0           0
          60           1  0.75854699999999997       -4.0612885317367695      -0.67751532138572301       -5.1840526895259291                0           0           0
          61           1  0.73175199999999996       -2.4325403710121223      -0.43141944091372153       -5.3677822744611579                0           0           0
          62           1   1.0328729999999999       -3.2241517853505246      -0.32112852684934090       -4.8598141716292185                0           0           0
          63           1  0.75083299999999997       -1.6056204107611061      -0.29725965667523635       -5.2691516020855111                0           0           0
          64           1  0.82179500000000005       -1.8866276299594222       -1.0774134790504295       -5.6607582756866011                0           0           0
          65           1  0.90665300000000004      -8.14476467597735621E-003 -0.65420133975518802       -4.8663678934135808                0           0           0
          66           1  0.88653700000000002      -0.93638164647556010      -0.30179852815413355       -4.6178457642661197                0           0           0
          67           1   1.1960150000000001       0.61462986636956618      -5.75315230163528923E-002  -5.5083069346731248                0           0           0
          68           1   1.0855290000000000        1.7633956041954457      -0.25783257779913082       -4.9764329162669751                0           0           0
          69           1  0.97821599999999997        2.8766442901578184      -0.73785023516929638       -5.2582270733239529                0           0           0
          70           1   1.4363210000000000        3.8786869884651320      -0.46969520154961764       -4.6850546089732807                0           0           0
          71           1   1.1656560000000000        5.2198382665728253      -0.35828445716207646       -4.9058765532479836                0           0           0
          72           1   1.0241950000000000       -5.1391057308683621       5.80195358045596521E-002  -5.4436266514313330                0           0           0
          73           1  0.83424600000000004       -4.6081408881017021       0.76599312231223138       -4.9640927255775544                0           0           0
          74           1   1.2242780000000000       -5.7164894373612096       0.90224680651729550       -4.8382300724115934                0           0           0
          75           1   1.2615920000000000       -3.9343529827706964       0.26478776762781298       -5.6878009005642003                0           0           0
          76           1  0.96946900000000003       -2.7342258105857900       0.42323372084346644       -5.5138052904487598                0           0           0
          77           1   1.0105480000000000       -3.3778868467386451       0.85825771050765631       -4.7502921211438647                0           0           0
          78           1   1.1696240000000000       -1.6372072629519110       0.71514995557053762       -5.3751103719280851                0           0           0
          79           1  0.91265600000000002       -2.2942817002295919        1.0239244944123147       -4.5809112375726206                0           0           0
          80           1  0.77751099999999995      -0.66461298823865267       0.45369140150304954       -5.3562736400897375                0           0           0
          81           1  0.88239800000000002       0.43299141922395101        1.0349280899698394       -5.3358808673318254                0           0           0
          82           1  0.79924200000000001        1.0782370404832111       0.44310658850857898       -4.6713303616506927                0           0           0
          83           1   1.1011640000000000        1.4545347631021412       0.81818780512399591       -5.6055804482703788                0           0           0
          84           1   1.4763390000000001        2.1784972848106268       0.88710466337997751       -4.5376847782041088                0           0           0
          85           1  0.85063500000000003        2.9579079377490896       0.18509300881532820       -4.8859033281484452                0           0           0
          86           1  0.83979999999999999        3.6433295040079177       0.21042558478184858       -5.5411185844277169                0           0           0
          87           1   1.1119710000000000        4.4793456593430125       0.66248676667406770       -5.0018881160304183                0           0           0
          88           1  0.92940100000000003       -5.4543069028416449        1.9600517653339073       -5.0983735983076333                0           0           0
          89           1  0.98624599999999996       -4.6153789928553790        2.3568175458856810       -5.6273612405342641                0           0           0
          90           1  0.88377099999999997       -3.8544670982222682        1.4237359268048122       -5.5073922664279902                0           0           0
          91           1   1.4289920000000000       -4.4179702047045932        1.7663216235641110       -4.5644031176893254                0           0           0
          92           1   1.2863240000000000       -2.6699974198103842        1.6163434210563699       -5.4884139882302199                0           0           0
          93           1  0.83280200000000004       -3.2633594175051397        1.8620651208594658       -4.5902574741127928                0           0           0
          94           1  0.91532000000000002       -1.5856519411620589        1.8515973215538439       -5.2061909783612839                0           0           0
          95           1   1.0549850000000001      -0.61663995250689574        1.4253276980698137       -5.3292292356030435                0           0           0
          96           1   1.4844250000000001       0.40633168702636624        2.1884306968588367       -5.4366636839242295                0           0           0
          97           1  0.86414400000000002        1.4762017508759087        1.8112472435116116       -5.3063188348131147                0           0           0
          98           1   1.3125690000000001        2.4424773292404875        2.2797552269344195       -5.1464953254032366                0           0           0
          99           1  0.82318199999999997        2.3811437458562654        1.2562363191504859       -5.6224249090934837                0           0           0
         100           1   1.2526790000000001        3.4017539438741373        1.2331535360981265       -5.3634493783253729                0           0           0
         101           1   1.3715560000000000        4.6956332092593183        1.9438403426134698       -5.2152298403737278                0           0           0
         102           1   1.1018300000000001       -5.2706745868727856        2.9226000755623076       -4.6568276789373968                0           0           0
         103           1   1.0932630000000001       -3.5677363881910393        2.4605025819428850       -5.3432064282447431                0           0           0
         104           1  0.91189900000000002       -4.1200345510309218        2.8854057485646134       -4.5123450143580550                0           0           0
         105           1  0.73728300000000002       -2.6123052421372090        2.6409397477788108       -5.2591350746300183                0           0           0
         106           1  0.79696199999999995       -3.3085747772217386        3.4014302534157448       -5.2547389783086693                0           0           0
         107           1   1.2884510000000000       -1.6754599656923581        2.9550930711726195       -4.9479512683333384                0           0           0
         108           1  0.90628100000000000      -0.72732764893966007        2.3966564296378454       -4.7448694768083497                0           0           0
         109           1   1.2439519999999999      -0.38425959032148427        3.3567361960728626       -5.2002349991400569                0           0           0
         110           1  0.85372000000000003      -0.78202713365671706        2.4262079052810037       -5.7207159541802666                0           0           0
         111           1  0.79320299999999999       0.61332002022643017        3.3019678879947030       -5.5999403405036219                0           0           0
         112           1  0.83657099999999995        1.1735154962090188        2.4680752946250610       -4.6466655193742863                0           0           0
         113           1  0.79898800000000003        2.9603580518420998        3.1890333533079644       -4.7865130699476044                0           0           0
         114           1  0.97961900000000002        3.5963906743841072        2.3812299072798968       -4.7891694481708056                0           0           0
         115           1  0.80490099999999998        4.3411258071073533        2.9620380354033422       -5.0320313382665525                0           0           0
         116           1  0.76785300000000001        5.2772317005233536        2.8448896176792235       -5.1948903313117096                0           0           0
         117           1  0.78729899999999997       -4.9540879271838083        4.4929306966454909       -5.4861170904192651                0           0           0
         118           1  0.86933700000000003       -5.5486579966184291        3.5902580353095708       -5.4402227178224276                0           0           0
         119           1   1.4795579999999999       -4.3749417759891127        3.5609775500222032       -5.4161858836738643                0           0           0
         120           1   1.1486650000000000       -3.1832227944158906        4.3778455168772101       -5.0825635338308368                0           0           0
         121           1  0.75789499999999999       -2.3862136258637578        3.7436699711775674       -4.9487301683555396                0           0           0
         122           1  0.80026200000000003       -2.3218844488851818        4.4430776530546030       -5.6142378663062953                0           0           0
         123           1  0.84546600000000005       -1.5252097203186983        3.9572578243057528       -5.5406460837525566                0           0           0
         124           1  0.74727200000000005       -1.2035087138536902        3.8590889829026462       -4.6796534291292184                0           0           0
         125           1   1.1842509999999999       -1.9077413699145378        4.6013857291950568       -4.6957991858362877                0           0           0
         126           1   1.0372950000000001      -0.65332140680819339        4.5126404236788549       -5.4112746830331604                0           0           0
         127           1  0.75573400000000002       0.26359324395272044        4.1580460465515792       -5.1437739678982402                0           0           0
         128           1  0.90554000000000001        1.2391669759940918        4.0852383983432183       -5.6182685342480072                0           0           0
         129           1  0.73019400000000001        1.8109281902455256        4.2129715006137154       -4.6963068602121556                0           0           0
         130           1   1.1501790000000001        2.1515531866272939        3.5474182244335442       -5.3293565834539383                0           0           0
         131           1   1.0361840000000000        3.0257773303126427        4.2488509854344585       -5.0794069554394712                0           0           0
         132           1  0.78415599999999996        3.9309074997283453        3.9057418884764186       -5.1490769316011153                0           0           0
         133           1  0.84128000000000003        4.6838308856701332        4.1797570437406453       -4.6298410967621351                0           0           0
         134           1   1.3047489999999999        4.8105129099000656        3.6872693150575611       -5.6354021302442758                0           0           0
         135           1  0.87163800000000002       -5.3670314721619752        5.3253749722407235       -5.1918576979930755                0           0           0
         136           1   1.1479109999999999       -4.3668707684247190        4.7487536358717168       -4.6935438232308098                0           0           0
         137           1  0.85967499999999997       -3.6123311262580291        5.3410217955688566       -5.1022368680354431                0           0           0
         138           1  0.80051799999999995       -4.4920823288937735        5.3886728532697390       -5.5088494561712658                0           0           0
         139           1   1.1004989999999999       -2.5958597159881749        5.4339192632772111       -5.4083912065323636                0           0           0
         140           1  0.95438500000000004       -1.5501929148699833        5.6935144166536524       -5.2094911612490371                0           0           0
         141           1  0.98720399999999997      -0.33401229261124854        5.6407075542540372       -5.5531452998508026                0           0           0
         142           1  0.86126300000000000       0.22228386083988028        5.0114374698671504       -4.8445745142960552                0           0           0
         143           1  0.79245800000000000        1.0891717256093463        4.6971098470946817       -4.8054164250846485                0           0           0
         144           1   1.2686580000000001        1.9929434232045313        4.9428529330034543       -5.3321430754324446                0           0           0
         145           1  0.86478800000000000        2.9187551894154478        5.2694702777563549       -4.8642935739706585                0           0           0
         146           1  0.73688299999999995        3.1266973669819365        5.0161805428928048       -5.7119732071848368                0           0           0
         147           1   1.4304490000000001        3.9919289747605067        4.9928172668520396       -4.9142414649461470                0           0           0
         148           1  0.76117100000000004        5.1010857615031533        5.0302000832534866       -5.0215509380803107                0           0           0
         149           1  0.81904200000000005        4.6138247869425300        4.8800403207927641        5.6730066766416787                0           0           0
         150           1  0.74355499999999997       -5.1835816158062311       -5.2287982041718415       -3.7797879540270403                0           0           0
         151           1  0.76271500000000003       -3.9029917087763399       -5.0069208156654170       -3.9565558761584052                0           0           0
         152           1  0.76898400000000000       -2.4893325787555649       -4.8064046263908127       -4.0481859646798748                0           0           0
         153           1   1.0236600000000000       -3.1911011887548826       -5.5617060945189074       -3.5238263607547013                0           0           0
         154           1  0.73077700000000001       -1.4598958740905843       -4.9260694133073510       -3.7384570374551052                0           0           0
         155           1   1.1202880000000000       -2.0294322592745146       -5.6748536434365464       -4.1976970003850402                0           0           0
         156           1  0.76807899999999996       -1.1992882454920899       -5.1705478412796566       -4.5135602969729902                0           0           0
         157           1   1.3321630000000000      -0.42966360802562154       -4.9764052265278211       -3.6595681195624841                0           0           0
         158           1  0.80179999999999996       0.65733094132328329       -4.9187722556194995       -3.9446292454644869                0           0           0
         159           1  0.94373200000000002        1.6137331302890328       -5.0667694733874891       -4.0336600050003950                0           0           0
         160           1  0.95481799999999994        3.1752925186866090       -4.6763990872437553       -4.5084455842934190                0           0           0
         161           1   1.4699640000000000        2.7709401670260707       -5.6454108846492099       -3.8626626064105811                0           0           0
         162           1   1.3309860000000000        4.2478563455175120       -5.0908974169157535       -4.0903817705607182                0           0           0
         163           1   1.1672389999999999        5.5633656829552525       -5.4998259543741685       -4.4546089625486402                0           0           0
         164           1  0.96901499999999996       -5.4441737867848232       -4.3983294931583901       -4.4214988754283766                0           0           0
         165           1   1.1382319999999999       -4.6481256218661269       -4.3861647262814554       -3.6090068755460210                0           0           0
         166           1   1.0295930000000000       -5.6950588874495001       -3.7177181798251842       -3.5826087643739202                0           0           0
         167           1  0.75638000000000005       -4.1008548679736254       -3.5513026549157396       -3.8335664418128093                0           0           0
         168           1   1.4976440000000000       -3.2657518786298247       -4.1960042915314730       -3.6180655148775993                0           0           0
         169           1   1.3677140000000001       -1.8360767645112244       -3.9913718036910355       -4.1968707113024530                0           0           0
         170           1  0.87362600000000001      -0.83413365024996278       -4.3144846016738105       -4.4509636374158807                0           0           0
         171           1  0.77448300000000003      -0.48748058320618881       -3.9129557255216505       -3.6641616492158096                0           0           0
         172           1   1.1426689999999999       0.18021349531883857       -4.1477829435084086       -4.4597852291143170                0           0           0
         173           1   1.6053649999999999        1.3716726342689709       -3.8522839370645574       -3.7900120664679706                0           0           0
         174           1  0.81254700000000002        2.3819183842522147       -4.4110736155662238       -4.0234296196587787                0           0           0
         175           1   1.5251770000000000        2.8620188087955363       -3.4532150637343948       -4.4884726957658065                0           0           0
         176           1  0.90739599999999998        3.8978072570025173       -3.9384367493804699       -4.1698389285198001                0           0           0
         177           1  0.91723800000000000        3.4622673339772962       -3.3073186321598449       -3.4514023341528364                0           0           0
         178           1  0.98055700000000001        4.9347762966310302       -4.1359459147771975       -4.2299809558889354                0           0           0
         179           1   1.4378010000000001       -4.9318154088590500       -3.2561287419722662       -4.4116221071573678                0           0           0