LAMMPS data file via write_data, version 17 Nov 2016, timestep = 0
      
  1500 atoms
      
1 atom types
  -5.7235712129999996        5.7235712129999996      xlo xhi
  -5.7235712129999996        5.7235712129999996      ylo yhi
  -5.7235712129999996        5.7235712129999996      zlo zhi
Masses
      
1 1
      
Pair Coeffs # lj/poly
      
                               1 1.0 1.0 2.025 1.25 0.2
      
Atoms # charge
      
           1           1  0.82965299999999997       -5.5473214254304617       -4.8802009754087310       -5.2667661886274386                0           0           0
           2           1   1.5413479999999999       -4.5846936135223553       -5.2718923804241333       -4.7571461260497507                0           0           0
           3           1  0.86062700000000003       -3.8122445850553781       -4.7649538081724900       -5.4964901301253519                0           0           0
           4           1   1.2325940000000000       -3.1878954427348600       -5.2236792456025105       -4.6660251063135458                0           0           0
           5           1  0.92110899999999996       -2.0919060979614312       -4.8995054819703778       -4.8992978167780876                0           0           0
           6           1   1.5043869999999999       -1.0407793272048984       -4.7276222686371581       -5.4643413793399809                0           0           0
           7           1  0.88103100000000001      -0.19728159440920745       -5.1553706702939595       -4.7383466205202804                0           0           0
           8           1  0.92227999999999999       0.29936381806156387       -4.6646972058136047       -5.4690414774984282                0           0           0
           9           1   1.5129459999999999       0.94124367423971567       -5.5179469261131233       -4.9800026837197464                0           0           0
          10           1  0.87097899999999995        2.1168951860310266       -5.5772510680966123       -4.7704734868681893                0           0           0
          11           1  0.82823300000000000        1.9392548446958404       -5.3934341616185630       -5.6946903787477048                0           0           0
          12           1   1.3333429999999999        3.0338536965393477       -5.3223775796880419       -5.5309666851370425                0           0           0
          13           1  0.81986499999999995        4.1256238701710881       -5.3039335711183426       -5.3233307262882832                0           0           0
          14           1  0.74748000000000003        3.5277783570581018       -5.5384119033048114       -4.6453300490905072                0           0           0
          15           1  0.86770400000000003        4.9229626067341528       -4.8167549478620542       -4.9816041156380741                0           0           0
          16           1  0.73948999999999998        4.6884397093480086       -5.6961141100030313       -4.7997674081420243                0           0           0
          17           1   1.1174949999999999       -4.8038515227422662       -4.1517180984697513       -5.5310810785068236                0           0           0
          18           1   1.0167780000000000       -4.0184436779251884       -4.1382642521021431       -4.6481032821004415                0           0           0
          19           1   1.0699300000000000       -2.8663125071030571       -4.0620357376247576       -4.8549278972594152                0           0           0
          20           1  0.76943799999999996       -1.9699343121560755       -4.0856785149636314       -5.3019755042865233                0           0           0
          21           1   1.0829869999999999      -0.23495863889589774       -3.7592988909134921       -5.6598569606719620                0           0           0
          22           1   1.3859269999999999       0.98549731689986064       -3.6830555992074969       -5.3590957700083859                0           0           0
          23           1  0.77240699999999995        1.0952208517726643       -4.4985044453975309       -4.6476454981005206                0           0           0
          24           1   1.1917739999999999        2.0327084342264587       -4.5366018063396432       -4.9961651665147047                0           0           0
          25           1  0.76583000000000001        1.8128464352307629       -3.5343540589159761       -4.7297304241405849                0           0           0
          26           1  0.97774899999999998        2.1701157356692136       -3.5611272692253158       -5.6165263106333638                0           0           0
          27           1  0.83108000000000004        2.9372518844793003       -4.1951058978526614       -5.3738684454990642                0           0           0
          28           1   1.2215430000000000        3.9926717174550870       -4.2724539351217103       -5.2399983698371431                0           0           0
          29           1   1.3806490000000000        5.3921882545685644       -3.8296481602131935       -5.3293824238091005                0           0           0
          30           1   1.0400879999999999       -5.1640734061366711       -2.9723048217114805       -5.6318857637722415                0           0           0
          31           1  0.77126099999999997       -4.2847096668118825       -3.2900553248203828       -5.2686980200655444                0           0           0
          32           1  0.92384800000000000       -4.2913981021220184       -2.3920808399202924       -4.9396555239587041                0           0           0
          33           1  0.88862900000000000       -2.3222060658326429       -3.1391812778788140       -4.8724123324290796                0           0           0
          34           1  0.86158199999999996       -3.0700427135850061       -2.8394821284211149       -5.5404347237271336                0           0           0
          35           1   1.1209890000000000       -1.3072525505352894       -3.3607156524216726       -5.2626948830586011                0           0           0
          36           1   1.2420370000000001      -0.20064459729208917       -2.9280516490383670       -4.7167384512504400                0           0           0
          37           1  0.88274100000000000       -1.0393432591488132       -2.3320356042376900       -5.1648117273749099                0           0           0
          38           1   1.0668899999999999       0.70457432436603273       -2.4481049370352173       -5.4110322740672183                0           0           0
          39           1   1.1892499999999999        1.8755994244020417       -2.5745051997385322       -5.0847166644208164                0           0           0
          40           1  0.78319600000000000        2.8185442320707104       -2.8147198954421442       -5.3767658714920818                0           0           0
          41           1  0.77194799999999997        2.7284445648445601       -2.2923097653364115       -4.5369474729838339                0           0           0
          42           1  0.74873199999999995        3.6792706886245270       -3.3180953615098283       -5.1773126342941049                0           0           0
          43           1   1.0263439999999999        4.5262964122032336       -3.2027997939477806       -4.7592839699119676                0           0           0
          44           1  0.81308199999999997        4.5628078093773805       -2.4817505216797162       -5.4210063510983000                0           0           0
          45           1   1.1161060000000000        3.6445256623943045       -2.3684832497346275       -4.9789660653580041                0           0           0
          46           1   1.2125560000000000        5.4802825493718039       -2.4265044520799273       -4.9183376919044619                0           0           0
          47           1  0.74192100000000005       -5.0283551340133981       -2.0610178229683638       -5.3479427003906013                0           0           0
          48           1  0.91800800000000005       -4.1462446659589824       -1.5532267708472913       -5.5023647219474174                0           0           0
          49           1  0.83222700000000005       -3.2286149321848243       -1.9530073274776090       -5.2752972801505758                0           0           0
          50           1   1.0095200000000000       -2.5306070525956934       -1.2253614113608302       -4.8863086200260604                0           0           0
          51           1   1.4893410000000000       -2.1328114584424394       -2.1955507833199412       -5.5778493363702886                0           0           0
          52           1   1.2179240000000000       -1.3414102868160898       -1.3247092915706959       -4.7678935158374358                0           0           0
          53           1   1.0644769999999999      -0.21661989929996306       -1.6543995453572817       -5.2119942366637551                0           0           0
          54           1   1.3780330000000001       0.97004636556895996       -1.2735975480000121       -5.0244159130285357                0           0           0
          55           1   1.0451729999999999        2.1543654026580308       -1.4271966140536900       -4.8228200522327374                0           0           0
          56           1  0.79520100000000005        3.6393483218525020       -1.3701538167154759       -5.2523699733868181                0           0           0
          57           1   1.0204660000000001        4.4158374959387281       -1.5898306215022995       -4.6036470312656430                0           0           0
          58           1  0.80856499999999998        5.3265697119321516       -1.3834225155405599       -5.0119248650252990                0           0           0
          59           1   1.3538969999999999       -5.0625936018534299       -1.0787929982327675       -4.9886469807374834                0           0           0
          60           1  0.75854699999999997       -4.0659622098551065      -0.68044153080249092       -5.1840115888048635                0           0           0
          61           1  0.73175199999999996       -2.4355380586456787      -0.43348476142579440       -5.3669771360618546                0           0           0
          62           1   1.0328729999999999       -3.2274111259914364      -0.32329261742602533       -4.8598855544685415                0           0           0
          63           1  0.75083299999999997       -1.6080613508596526      -0.29708057266056631       -5.2686512651624691                0           0           0
          64           1  0.82179500000000005       -1.8878420735186157       -1.0788672055177422       -5.6591256287956142                0           0           0
          65           1  0.90665300000000004      -9.88161945102827843E-003 -0.65468753889552822       -4.8649140939226623                0           0           0
          66           1  0.88653700000000002      -0.93850588458649042      -0.30420489739242740       -4.6171022696737571                0           0           0
          67           1   1.1960150000000001       0.61221108633294818      -5.75648390272762711E-002  -5.5079893031359557                0           0           0
          68           1   1.0855290000000000        1.7609803182253421      -0.25670935355200974       -4.9770534502423907                0           0           0
          69           1  0.97821599999999997        2.8741470263311886      -0.73400233095480782       -5.2597383707686927                0           0           0
          70           1   1.4363210000000000        3.8762894277259168      -0.46392739151275375       -4.6860875575084187                0           0           0
          71           1   1.1656560000000000        5.2168635137669952      -0.35868096554996232       -4.9088011427792164                0           0           0
          72           1   1.0241950000000000       -5.1397638329128776       5.84619503041468036E-002  -5.4435613610683715                0           0           0
          73           1  0.83424600000000004       -4.6081900916745271       0.76589891704390123       -4.9646211769412663                0           0           0
          74           1   1.2242780000000000       -5.7174351722471188       0.90280202730777859       -4.8385731975682589                0           0           0
          75           1   1.2615920000000000       -3.9360368646264616       0.26310254995674587       -5.6884847395438953                0           0           0
          76           1  0.96946900000000003       -2.7359477467832001       0.42194292422967017       -5.5125651984180246                0           0           0
          77           1   1.0105480000000000       -3.3820635884647738       0.85664483181061346       -4.7508857062408127                0           0           0
          78           1   1.1696240000000000       -1.6384803935886119       0.71498094271228485       -5.3751010991179538                0           0           0
          79           1  0.91265600000000002       -2.2989683610687259        1.0198532101455058       -4.5821419016898757                0           0           0
          80           1  0.77751099999999995      -0.66594410333880560       0.45425924625789715       -5.3566660718277497                0           0           0
          81           1  0.88239800000000002       0.43041084352946690        1.0353021058303709       -5.3350996992846325                0           0           0
          82           1  0.79924200000000001        1.0749487723966809       0.44296370315716871       -4.6712009682477582                0           0           0
          83           1   1.1011640000000000        1.4518622376687711       0.81934155820148824       -5.6054519405650272                0           0           0
          84           1   1.4763390000000001        2.1762388304359641       0.88852725823076995       -4.5377507526735918                0           0           0
          85           1  0.85063500000000003        2.9560076875656573       0.18850876766655578       -4.8869625849471312                0           0           0
          86           1  0.83979999999999999        3.6397817905442427       0.21433237804283589       -5.5434364600133028                0           0           0
          87           1   1.1119710000000000        4.4783170829357264       0.66437320928434751       -5.0025276800436949                0           0           0
          88           1  0.92940100000000003       -5.4540755839521600        1.9605769882456618       -5.0977020738093666                0           0           0
          89           1  0.98624599999999996       -4.6155266163229101        2.3556287785599963       -5.6282451880113449                0           0           0
          90           1  0.88377099999999997       -3.8557122583061436        1.4230340338603247       -5.5081749999943233                0           0           0
          91           1   1.4289920000000000       -4.4185089696193627        1.7657315106790392       -4.5643999200455774                0           0           0
          92           1   1.2863240000000000       -2.6712780462608396        1.6153951099772641       -5.4891817945192249                0           0           0
          93           1  0.83280200000000004       -3.2645552143087739        1.8607498583072459       -4.5909893529224952                0           0           0
          94           1  0.91532000000000002       -1.5874445630144960        1.8503227991330737       -5.2080003347618664                0           0           0
          95           1   1.0549850000000001      -0.61773666624331369        1.4260296596696431       -5.3296434018182417                0           0           0
          96           1   1.4844250000000001       0.40512080054337751        2.1894604447252322       -5.4358682064211123                0           0           0
          97           1  0.86414400000000002        1.4747909565818844        1.8120435325639610       -5.3058583249045848                0           0           0
          98           1   1.3125690000000001        2.4414852610445958        2.2804050487995298       -5.1462039508904818                0           0           0
          99           1  0.82318199999999997        2.3791566916875446        1.2574933784538977       -5.6222166540644247                0           0           0
         100           1   1.2526790000000001        3.3998766188467417        1.2358537228117026       -5.3629240941530574                0           0           0
         101           1   1.3715560000000000        4.6953635779040965        1.9445273619541315       -5.2158440601199345                0           0           0
         102           1   1.1018300000000001       -5.2706742775898361        2.9233296227266301       -4.6568924172688924                0           0           0
         103           1   1.0932630000000001       -3.5680804403223383        2.4592310231700978       -5.3442636232385867                0           0           0
         104           1  0.91189900000000002       -4.1196392132336710        2.8844791233640503       -4.5128880359723720                0           0           0
         105           1  0.73728300000000002       -2.6120453620633985        2.6390936215590486       -5.2602833471100370                0           0           0
         106           1  0.79696199999999995       -3.3096320566155422        3.3998565475382332       -5.2547526487499390                0           0           0
         107           1   1.2884510000000000       -1.6749390376710975        2.9523508347194412       -4.9483918685500914                0           0           0
         108           1  0.90628100000000000      -0.72630196133803704        2.3970317186694139       -4.7452118584599239                0           0           0
         109           1   1.2439519999999999      -0.38410322890521975        3.3607756005126106       -5.1971558219984795                0           0           0
         110           1  0.85372000000000003      -0.78327001748575320        2.4276743025044940       -5.7203284623642876                0           0           0
         111           1  0.79320299999999999       0.61271836382589484        3.3028464911241624       -5.5975208116390753                0           0           0
         112           1  0.83657099999999995        1.1730641625874876        2.4685818952884322       -4.6465903862375244                0           0           0
         113           1  0.79898800000000003        2.9602508419179063        3.1888968412062244       -4.7859271551575056                0           0           0
         114           1  0.97961900000000002        3.5948973419258952        2.3812683909507832       -4.7890209893875291                0           0           0
         115           1  0.80490099999999998        4.3397635768848755        2.9615233219964985       -5.0314009163531113                0           0           0
         116           1  0.76785300000000001        5.2781713485182831        2.8444693035157087       -5.1952042438031061                0           0           0
         117           1  0.78729899999999997       -4.9536137851998534        4.4899644105489056       -5.4878268523190936                0           0           0
         118           1  0.86933700000000003       -5.5488104508404357        3.5901334514387120       -5.4413296158216680                0           0           0
         119           1   1.4795579999999999       -4.3748405637725725        3.5591971965167044       -5.4171305781358647                0           0           0
         120           1   1.1486650000000000       -3.1805415084044188        4.3757245854276388       -5.0847204709780227                0           0           0
         121           1  0.75789499999999999       -2.3830525951087775        3.7428846161217972       -4.9447506795180569                0           0           0
         122           1  0.80026200000000003       -2.3168572325786041        4.4437637259098324       -5.6139210728128752                0           0           0
         123           1  0.84546600000000005       -1.5212643453277019        3.9568924735302797       -5.5386973587013797                0           0           0
         124           1  0.74727200000000005       -1.2026142170141370        3.8553352045041507       -4.6782210104562942                0           0           0
         125           1   1.1842509999999999       -1.9018840518391484        4.6006619183144828       -4.6932283000389141                0           0           0
         126           1   1.0372950000000001      -0.65477190535793284        4.5200808176635565       -5.4038633473273512                0           0           0
         127           1  0.75573400000000002       0.26260286720738701        4.1632906120285824       -5.1367698301943827                0           0           0
         128           1  0.90554000000000001        1.2404932391875025        4.0860251993483097       -5.6157663497384309                0           0           0
         129           1  0.73019400000000001        1.8113982682370686        4.2123654589613171       -4.6998869770634570                0           0           0
         130           1   1.1501790000000001        2.1529314880174946        3.5472956997279326       -5.3301842780499635                0           0           0
         131           1   1.0361840000000000        3.0249276144375088        4.2514880368361787       -5.0763136721386779                0           0           0
         132           1  0.78415599999999996        3.9299838983360544        3.9072680266435746       -5.1480676369282978                0           0           0
         133           1  0.84128000000000003        4.6834796537887566        4.1805764284127420       -4.6286424337958669                0           0           0
         134           1   1.3047489999999999        4.8098932694513117        3.6864700579949545       -5.6341223272380843                0           0           0
         135           1  0.87163800000000002       -5.3639671418229318        5.3215844321918713       -5.1967683350879685                0           0           0
         136           1   1.1479109999999999       -4.3658410695415943        4.7461264798617684       -4.6952252916353583                0           0           0
         137           1  0.85967499999999997       -3.6107997886369376        5.3382361135017558       -5.1025159116002943                0           0           0
         138           1  0.80051799999999995       -4.4893455580370629        5.3866069924985549       -5.5106980006223418                0           0           0
         139           1   1.1004989999999999       -2.5946978636449147        5.4324407263607988       -5.4075429188249231                0           0           0
         140           1  0.95438500000000004       -1.5510993096501391        5.6905143170447161       -5.1991607917013116                0           0           0
         141           1  0.98720399999999997      -0.33165643375523146        5.6430198533922287       -5.5484490055953577                0           0           0
         142           1  0.86126300000000000       0.22232345486752259        5.0197719063219015       -4.8420130861748820                0           0           0
         143           1  0.79245800000000000        1.0897154527656090        4.7010251088410318       -4.7946638674543935                0           0           0
         144           1   1.2686580000000001        1.9929382630648282        4.9459770866707782       -5.3306436878589007                0           0           0
         145           1  0.86478800000000000        2.9191753145080579        5.2732084175206868       -4.8605814362024802                0           0           0
         146           1  0.73688299999999995        3.1270146541972572        5.0170281682944964       -5.7075729957561867                0           0           0
         147           1   1.4304490000000001        3.9914608476636513        4.9938413026685264       -4.9122827905580930                0           0           0
         148           1  0.76117100000000004        5.1025439983752303        5.0306276122755662       -5.0213282201778426                0           0           0
         149           1  0.81904200000000005        4.6141130247405737        4.8803280303672043        5.6750318605933234                0           0           0
         150           1  0.74355499999999997       -5.1758028590012586       -5.2338754442098203       -3.7926813575828149                0           0           0
         151           1  0.76271500000000003       -3.9032480559509932       -5.0070761735766016       -3.9565730651861708                0           0           0
         152           1  0.76898400000000000       -2.4897050916122021       -4.8084160587784659       -4.0485063405367061                0           0           0
         153           1   1.0236600000000000       -3.1897698151739795       -5.5627088224441366       -3.5244937395901106                0           0           0
         154           1  0.73077700000000001       -1.4105437016167954       -5.0781404024225267       -3.6670646682547030                0           0           0
         155           1   1.1202880000000000       -2.0344895103850829       -5.6815239286977137       -4.1893125130293116                0           0           0
         156           1  0.76807899999999996       -1.2237002823212642       -5.1491766635531571       -4.4870852785462327                0           0           0
         157           1   1.3321630000000000      -0.40499629104807777       -4.9681582125618302       -3.6547354969350865                0           0           0
         158           1  0.80179999999999996       0.67286123985366064       -4.9137127020296933       -3.9385442818311791                0           0           0
         159           1  0.94373200000000002        1.6281737270395791       -5.0613788982537020       -4.0222803114580188                0           0           0
         160           1  0.95481799999999994        3.1820623840441389       -4.6701160117985685       -4.5102210994330640                0           0           0
         161           1   1.4699640000000000        2.7787539033336692       -5.6368568661607661       -3.8593607208698391                0           0           0
         162           1   1.3309860000000000        4.2535331524922295       -5.0870450445092574       -4.0929242289736276                0           0           0
         163           1   1.1672389999999999        5.5656405638553004       -5.5084723840117711       -4.4603437671144999                0           0           0
         164           1  0.96901499999999996       -5.4434346423883575       -4.4023701863744504       -4.4214941920867119                0           0           0
         165           1   1.1382319999999999       -4.6485334663847073       -4.3881478615049794       -3.6072073121646211                0           0           0
         166           1   1.0295930000000000       -5.6939139493939690       -3.7189309954082241       -3.5801429332044119                0           0           0
         167           1  0.75638000000000005       -4.0984694906414809       -3.5546969529396031       -3.8300017587541557                0           0           0
         168           1   1.4976440000000000       -3.2635864559220402       -4.1976179220300436       -3.6167803200784068                0           0           0
         169           1   1.3677140000000001       -1.8327937624456681       -3.9964480998074752       -4.2010912322493441                0           0           0
         170           1  0.87362600000000001      -0.82316221272698353       -4.3110096778895652       -4.4452729553013510                0           0           0
         171           1  0.77448300000000003      -0.48030640658520873       -3.9080306007663110       -3.6621885955158962                0           0           0
         172           1   1.1426689999999999       0.19179646779596204       -4.1443078498814661       -4.4582777315070850                0           0           0
         173           1   1.6053649999999999        1.3809666156114497       -3.8499404498367813       -3.7828157694038893                0           0           0
         174           1  0.81254700000000002        2.3918308291017834       -4.4079748652059108       -4.0170320202934020                0           0           0
         175           1   1.5251770000000000        2.8626784119381892       -3.4449398849079365       -4.4866537725401994                0           0           0
         176           1  0.90739599999999998        3.9023844846674294       -3.9256703777297481       -4.1827150701469495                0           0           0
         177           1  0.91723800000000000        3.4729024738339422       -3.2937552998921862       -3.4583722668876757                0           0           0
         178           1  0.98055700000000001        4.9375879240556806       -4.1296466669185579       -4.2329615922746466                0           0           0
         179           1   1.4378010000000001       -4.9246267215053807       -3.2648394022490477       -4.4138491452412207                0           0           0