LAMMPS data file via write_data, version 17 Nov 2016, timestep = 0
      
  1500 atoms
      
1 atom types
  -5.7235712129999996        5.7235712129999996      xlo xhi
  -5.7235712129999996        5.7235712129999996      ylo yhi
  -5.7235712129999996        5.7235712129999996      zlo zhi
Masses
      
1 1
      
Pair Coeffs # lj/poly
      
                               1 1.0 1.0 2.025 1.25 0.2
      
Atoms # charge
      
           1           1  0.82965299999999997       -5.5419005207977268       -4.8818774164622729       -5.2662954896859135                0           0           0
           2           1   1.5413479999999999       -4.5745021909978716       -5.2717167911984175       -4.7567987610919875                0           0           0
           3           1  0.86062700000000003       -3.7960524656118233       -4.7720524681009833       -5.4913321755950042                0           0           0
           4           1   1.2325940000000000       -3.1682374903633486       -5.2181991376517942       -4.6525616112001966                0           0           0
           5           1  0.92110899999999996       -2.0773907501686697       -4.9044525735861608       -4.9087433609955022                0           0           0
           6           1   1.5043869999999999       -1.0378859221806209       -4.7555792122967127       -5.4723971023377969                0           0           0
           7           1  0.88103100000000001      -0.20236691200214629       -5.1722106050158168       -4.7394426131880785                0           0           0
           8           1  0.92227999999999999       0.28213371302286916       -4.6676070728563950       -5.4677837822866335                0           0           0
           9           1   1.5129459999999999       0.93692301703989411       -5.5145113158932517       -4.9747334832661920                0           0           0
          10           1  0.87097899999999995        2.1155975835604233       -5.5788101428154722       -4.7692759277753281                0           0           0
          11           1  0.82823300000000000        1.9392199735030307       -5.3957364004666930       -5.6934741412804488                0           0           0
          12           1   1.3333429999999999        3.0343445298614178       -5.3243256244098811       -5.5300073961577674                0           0           0
          13           1  0.81986499999999995        4.1258696268704327       -5.3075980829635894       -5.3195570660700167                0           0           0
          14           1  0.74748000000000003        3.5257257912776687       -5.5392168305543770       -4.6425264335375251                0           0           0
          15           1  0.86770400000000003        4.9246477467087004       -4.8178858525472394       -4.9802759200197890                0           0           0
          16           1  0.73948999999999998        4.6917680952872889       -5.6969593196836383       -4.7974883034521305                0           0           0
          17           1   1.1174949999999999       -4.7969640118190142       -4.1503556790869132       -5.5213325717421489                0           0           0
          18           1   1.0167780000000000       -3.9939967094040334       -4.1455082631864144       -4.6457331983590979                0           0           0
          19           1   1.0699300000000000       -2.8233957524827775       -4.0603930734908591       -4.8347224161035252                0           0           0
          20           1  0.76943799999999996       -1.9467893885412009       -4.0858098896645831       -5.3132278755403686                0           0           0
          21           1   1.0829869999999999      -0.25387265041284035       -3.7674160491413007       -5.6916421125124703                0           0           0
          22           1   1.3859269999999999       0.96684914089272667       -3.6929686810837943       -5.3535745432703550                0           0           0
          23           1  0.77240699999999995        1.1097496170861989       -4.5017156075671307       -4.6364398576689725                0           0           0
          24           1   1.1917739999999999        2.0360571884269998       -4.5382844945927179       -4.9969855492544566                0           0           0
          25           1  0.76583000000000001        1.8029326423694041       -3.5385243977268597       -4.7296767607686441                0           0           0
          26           1  0.97774899999999998        2.1620344003236900       -3.5638103990445535       -5.6150442891375167                0           0           0
          27           1  0.83108000000000004        2.9381700680107024       -4.1940343093815535       -5.3720700168139199                0           0           0
          28           1   1.2215430000000000        3.9933815679397373       -4.2758024065562719       -5.2401721606755531                0           0           0
          29           1   1.3806490000000000        5.3948048639129791       -3.8312572640179408       -5.3275876300821539                0           0           0
          30           1   1.0400879999999999       -5.1626253996291851       -2.9727171915833628       -5.6280299146299795                0           0           0
          31           1  0.77126099999999997       -4.2796156103236456       -3.2896904287832682       -5.2679669776815725                0           0           0
          32           1  0.92384800000000000       -4.2762069055329164       -2.3968194513438807       -4.9354890539929661                0           0           0
          33           1  0.88862900000000000       -2.3141542772854757       -3.1306959431762089       -4.8786313805843138                0           0           0
          34           1  0.86158199999999996       -3.0682692696805822       -2.8371110295298907       -5.5342919243468680                0           0           0
          35           1   1.1209890000000000       -1.3295875824554422       -3.3154420840243799       -5.3205452970226137                0           0           0
          36           1   1.2420370000000001      -0.20676922177827173       -2.9488201431444758       -4.7305010920056096                0           0           0
          37           1  0.88274100000000000       -1.0375711428851950       -2.3159215007824847       -5.1621767395642193                0           0           0
          38           1   1.0668899999999999       0.69634262107854727       -2.4528255781259394       -5.4142747894478118                0           0           0
          39           1   1.1892499999999999        1.8670349747449686       -2.5779620542220116       -5.0866741291154751                0           0           0
          40           1  0.78319600000000000        2.8105427070295672       -2.8151675554496429       -5.3745509020458959                0           0           0
          41           1  0.77194799999999997        2.7211862073275199       -2.2919026931950253       -4.5436901243688617                0           0           0
          42           1  0.74873199999999995        3.6789999217030225       -3.3235237572044505       -5.1717326115751678                0           0           0
          43           1   1.0263439999999999        4.5278727740568119       -3.2046435037040708       -4.7575353747368156                0           0           0
          44           1  0.81308199999999997        4.5616770625057459       -2.4809546118911832       -5.4163479580009009                0           0           0
          45           1   1.1161060000000000        3.6401950899393203       -2.3730555722949034       -4.9793618260076773                0           0           0
          46           1   1.2125560000000000        5.4817071480159925       -2.4301608112110666       -4.9159998120581454                0           0           0
          47           1  0.74192100000000005       -5.0017114084518797       -2.0586509668113577       -5.3630839664652310                0           0           0
          48           1  0.91800800000000005       -4.1495176926069028       -1.5559670901484539       -5.5035927478253459                0           0           0
          49           1  0.83222700000000005       -3.2329023681051439       -1.9499799489579717       -5.2777225180822640                0           0           0
          50           1   1.0095200000000000       -2.5307754415635375       -1.2207811137113715       -4.8828838609833234                0           0           0
          51           1   1.4893410000000000       -2.1358580810036303       -2.1881132412951185       -5.5787997693542062                0           0           0
          52           1   1.2179240000000000       -1.3400236399738024       -1.3167850381241815       -4.7706214703556240                0           0           0
          53           1   1.0644769999999999      -0.21706069329887434       -1.6504278435090711       -5.2209181589385736                0           0           0
          54           1   1.3780330000000001       0.96807827200620711       -1.2767176735900101       -5.0266327255698346                0           0           0
          55           1   1.0451729999999999        2.1524167954287190       -1.4308098260408073       -4.8242819881677672                0           0           0
          56           1  0.79520100000000005        3.6389951265093963       -1.3741849313573242       -5.2537386305185088                0           0           0
          57           1   1.0204660000000001        4.4124979181576460       -1.5964276634372769       -4.6023898156314820                0           0           0
          58           1  0.80856499999999998        5.3242376260271751       -1.3869121145481325       -5.0070556465717395                0           0           0
          59           1   1.3538969999999999       -5.0650007059414497       -1.0811483459314557       -4.9892941051570876                0           0           0
          60           1  0.75854699999999997       -4.0659242408372380      -0.68187810698099671       -5.1851477048463988                0           0           0
          61           1  0.73175199999999996       -2.4364826192466427      -0.42969782573177895       -5.3660274634539435                0           0           0
          62           1   1.0328729999999999       -3.2280822467998052      -0.31984429166744999       -4.8596985508177948                0           0           0
          63           1  0.75083299999999997       -1.6084803553909950      -0.29564763445102837       -5.2671047650073710                0           0           0
          64           1  0.82179500000000005       -1.8911799286639854       -1.0744198757091263       -5.6593176233073583                0           0           0
          65           1  0.90665300000000004      -1.08066291825688054E-002 -0.65366921272428602       -4.8675735471445440                0           0           0
          66           1  0.88653700000000002      -0.93814240271961236      -0.29992229542666138       -4.6173974983712380                0           0           0
          67           1   1.1960150000000001       0.61322421493319368      -5.78243059431535755E-002  -5.5085773015322133                0           0           0
          68           1   1.0855290000000000        1.7596599068182961      -0.25931908730370434       -4.9769246759064369                0           0           0
          69           1  0.97821599999999997        2.8732161101147238      -0.73708226739492222       -5.2600511146183280                0           0           0
          70           1   1.4363210000000000        3.8758661915011743      -0.46776466413141282       -4.6867891849549910                0           0           0
          71           1   1.1656560000000000        5.2155512821306189      -0.36110498338967378       -4.9104094983515800                0           0           0
          72           1   1.0241950000000000       -5.1395062237023570       5.72650364552824698E-002  -5.4434433355630238                0           0           0
          73           1  0.83424600000000004       -4.6096928195013396       0.76655830702152716       -4.9654748703124865                0           0           0
          74           1   1.2242780000000000       -5.7189828726892067       0.90156300571860548       -4.8400488514222308                0           0           0
          75           1   1.2615920000000000       -3.9371684030937351       0.26419528359233535       -5.6890563051461598                0           0           0
          76           1  0.96946900000000003       -2.7382200831079659       0.42499059759666036       -5.5122275803044891                0           0           0
          77           1   1.0105480000000000       -3.3860829324200159       0.85920304373778578       -4.7505472581443442                0           0           0
          78           1   1.1696240000000000       -1.6408776180035218       0.71637744928455582       -5.3714525261202350                0           0           0
          79           1  0.91265600000000002       -2.3042102987951369        1.0182298887499339       -4.5782632892928490                0           0           0
          80           1  0.77751099999999995      -0.66813004726209524       0.45581248059618940       -5.3560252255706411                0           0           0
          81           1  0.88239800000000002       0.43139910996949205        1.0344630210615415       -5.3358743551901799                0           0           0
          82           1  0.79924200000000001        1.0760293742653841       0.44355582892540912       -4.6717084163452673                0           0           0
          83           1   1.1011640000000000        1.4523325943083405       0.81853165256842253       -5.6065711591620850                0           0           0
          84           1   1.4763390000000001        2.1755916992436166       0.88673638207933614       -4.5383840349265663                0           0           0
          85           1  0.85063500000000003        2.9549533158531922       0.18534180916903864       -4.8865874265375124                0           0           0
          86           1  0.83979999999999999        3.6384626936183082       0.21248434721634979       -5.5429562001510897                0           0           0
          87           1   1.1119710000000000        4.4770158290669713       0.66225976356880878       -5.0033693580060170                0           0           0
          88           1  0.92940100000000003       -5.4539911738079985        1.9595636184741814       -5.0984772611187683                0           0           0
          89           1  0.98624599999999996       -4.6147394886340205        2.3565295884474367       -5.6284367373661039                0           0           0
          90           1  0.88377099999999997       -3.8564542693620365        1.4262054290104400       -5.5091765533263244                0           0           0
          91           1   1.4289920000000000       -4.4190542104285138        1.7663315616962967       -4.5659539193546097                0           0           0
          92           1   1.2863240000000000       -2.6727334002751499        1.6169107780074992       -5.4858608655236516                0           0           0
          93           1  0.83280200000000004       -3.2655946929582855        1.8635368800469196       -4.5869398143211075                0           0           0
          94           1  0.91532000000000002       -1.5881860510934436        1.8508917496928161       -5.2046039341217849                0           0           0
          95           1   1.0549850000000001      -0.61783587625900438        1.4264023128891683       -5.3283307112202021                0           0           0
          96           1   1.4844250000000001       0.40664741552634887        2.1875198228334787       -5.4381255052978474                0           0           0
          97           1  0.86414400000000002        1.4762915523636559        1.8106090518729996       -5.3054409654854329                0           0           0
          98           1   1.3125690000000001        2.4425989825118108        2.2798068881759761       -5.1466617435449740                0           0           0
          99           1  0.82318199999999997        2.3791491026037388        1.2565118291562491       -5.6225449125487437                0           0           0
         100           1   1.2526790000000001        3.3995438971793224        1.2344500059678882       -5.3642803238395160                0           0           0
         101           1   1.3715560000000000        4.6945946596460946        1.9433993671902616       -5.2159389496254223                0           0           0
         102           1   1.1018300000000001       -5.2709361152586167        2.9233560209653362       -4.6592254177671020                0           0           0
         103           1   1.0932630000000001       -3.5676427535455888        2.4629898857712327       -5.3427571353920928                0           0           0
         104           1  0.91189900000000002       -4.1203416690752750        2.8847635249185615       -4.5119116367867740                0           0           0
         105           1  0.73728300000000002       -2.6131782212106898        2.6414488325246346       -5.2580952079143852                0           0           0
         106           1  0.79696199999999995       -3.3063013415482585        3.4052291176647724       -5.2496738208105755                0           0           0
         107           1   1.2884510000000000       -1.6775455316430881        2.9531911776761053       -4.9460066712955690                0           0           0
         108           1  0.90628100000000000      -0.72882561906593324        2.3953007952574055       -4.7439514025244591                0           0           0
         109           1   1.2439519999999999      -0.38527851836281357        3.3543480318690388       -5.2000431617716583                0           0           0
         110           1  0.85372000000000003      -0.78082060735724745        2.4254966374456473       -5.7204212345033048                0           0           0
         111           1  0.79320299999999999       0.61306516799791755        3.3016062507111048       -5.5982894704146302                0           0           0
         112           1  0.83657099999999995        1.1741639140553017        2.4690478427297826       -4.6486427915801203                0           0           0
         113           1  0.79898800000000003        2.9609803002397097        3.1886846554218842       -4.7855978311642646                0           0           0
         114           1  0.97961900000000002        3.5956047690951589        2.3810163356783889       -4.7892489026392111                0           0           0
         115           1  0.80490099999999998        4.3399486400748852        2.9615264352304074       -5.0323278687049591                0           0           0
         116           1  0.76785300000000001        5.2758419006187474        2.8439377943690030       -5.1958739900929478                0           0           0
         117           1  0.78729899999999997       -4.9516286519329649        4.4917077987868161       -5.4871841458836306                0           0           0
         118           1  0.86933700000000003       -5.5477313074274548        3.5920764450590408       -5.4415238638800725                0           0           0
         119           1   1.4795579999999999       -4.3732302267296337        3.5607603511717212       -5.4162426059576569                0           0           0
         120           1   1.1486650000000000       -3.1833608098317856        4.3845679157883453       -5.0824250417719545                0           0           0
         121           1  0.75789499999999999       -2.3901141587962309        3.7430817431108121       -4.9429476644083730                0           0           0
         122           1  0.80026200000000003       -2.3200335674559969        4.4443358402997877       -5.6122938703521834                0           0           0
         123           1  0.84546600000000005       -1.5262516658382941        3.9545133719560006       -5.5370675779161447                0           0           0
         124           1  0.74727200000000005       -1.2038575995931593        3.8566070179183782       -4.6765116398587372                0           0           0
         125           1   1.1842509999999999       -1.9068314857684081        4.6015774795285580       -4.6922646445712504                0           0           0
         126           1   1.0372950000000001      -0.65562219114907627        4.5106403276289964       -5.4085192785296305                0           0           0
         127           1  0.75573400000000002       0.26010974221721206        4.1601327929184269       -5.1391481461390951                0           0           0
         128           1  0.90554000000000001        1.2427780202910199        4.0839876906616119       -5.6166327917420036                0           0           0
         129           1  0.73019400000000001        1.8133084674073077        4.2094664224751170       -4.7000307299527986                0           0           0
         130           1   1.1501790000000001        2.1539915972969537        3.5458152673529231       -5.3300608507503258                0           0           0
         131           1   1.0361840000000000        3.0253915129992546        4.2510268626175183       -5.0756895540428477                0           0           0
         132           1  0.78415599999999996        3.9309143923765237        3.9083598138325897       -5.1476800339901452                0           0           0
         133           1  0.84128000000000003        4.6847350227939852        4.1818915020867387       -4.6284390206921708                0           0           0
         134           1   1.3047489999999999        4.8107497901539418        3.6877270746554380       -5.6335160291266355                0           0           0
         135           1  0.87163800000000002       -5.3607697785603241        5.3228438021172675       -5.1973035054590433                0           0           0
         136           1   1.1479109999999999       -4.3634613119569234        4.7504536463616436       -4.6945972869521047                0           0           0
         137           1  0.85967499999999997       -3.6111374668039131        5.3533517976124347       -5.0965562854258515                0           0           0
         138           1  0.80051799999999995       -4.4872217889733079        5.3885070464832143       -5.5120295433832984                0           0           0
         139           1   1.1004989999999999       -2.5953401913112772        5.4364709392044990       -5.4110676484077507                0           0           0
         140           1  0.95438500000000004       -1.5486394434704316        5.6697337882962149       -5.1904506638341337                0           0           0
         141           1  0.98720399999999997      -0.33252489865821744        5.6307938116377834       -5.5500188863971838                0           0           0
         142           1  0.86126300000000000       0.22999474499580597        5.0183612398317159       -4.8423712506895518                0           0           0
         143           1  0.79245800000000000        1.0941869411231036        4.6991372407173291       -4.7893950602596220                0           0           0
         144           1   1.2686580000000001        1.9924414509680339        4.9453372995484237       -5.3289667241814218                0           0           0
         145           1  0.86478800000000000        2.9183546182242175        5.2719786637612174       -4.8585182312833615                0           0           0
         146           1  0.73688299999999995        3.1262885530777034        5.0175106468250910       -5.7062401758984631                0           0           0
         147           1   1.4304490000000001        3.9917358588775755        4.9948295720367284       -4.9114686733009778                0           0           0
         148           1  0.76117100000000004        5.1026596720192039        5.0291873332220991       -5.0210593012237252                0           0           0
         149           1  0.81904200000000005        4.6148254505147666        4.8800966784115936        5.6757846801835452                0           0           0
         150           1  0.74355499999999997       -5.1727155497379789       -5.2327430657543079       -3.7934859985994986                0           0           0
         151           1  0.76271500000000003       -3.8949574677033909       -5.0046647976575107       -3.9557011543524210                0           0           0
         152           1  0.76898400000000000       -2.4449692034589243       -4.7753065545017979       -4.0546964038404480                0           0           0
         153           1   1.0236600000000000       -3.1876869490775825       -5.5611231145386260       -3.5143445525587769                0           0           0
         154           1  0.73077700000000001       -1.4883143486071209       -4.9101339785873765       -3.7555432284153820                0           0           0
         155           1   1.1202880000000000       -2.0116646649394290       -5.6691187702078087       -4.1817182269027375                0           0           0
         156           1  0.76807899999999996       -1.1672895674729356       -5.1567511374994588       -4.4902519119667144                0           0           0
         157           1   1.3321630000000000      -0.46543633548698971       -4.9656731525039044       -3.6734521861058806                0           0           0
         158           1  0.80179999999999996       0.67973801211953422       -4.9368463430278062       -3.9291300895077637                0           0           0
         159           1  0.94373200000000002        1.6346501387024182       -5.0614611455686909       -4.0205732701173522                0           0           0
         160           1  0.95481799999999994        3.1807717866212215       -4.6709407402979508       -4.5092794559276008                0           0           0
         161           1   1.4699640000000000        2.7768318289412814       -5.6385026558928155       -3.8569629661562272                0           0           0
         162           1   1.3309860000000000        4.2535449610547271       -5.0883142703421518       -4.0925225475923748                0           0           0
         163           1   1.1672389999999999        5.5702886871354096       -5.5086395599079552       -4.4608938772836968                0           0           0
         164           1  0.96901499999999996       -5.4402992548401992       -4.4052675061469078       -4.4203064946493624                0           0           0
         165           1   1.1382319999999999       -4.6420209916885806       -4.3905469279960023       -3.6083795619465140                0           0           0
         166           1   1.0295930000000000       -5.6919286489135734       -3.7220052629509954       -3.5806238869397466                0           0           0
         167           1  0.75638000000000005       -4.0871760566140729       -3.5683108172151381       -3.8302925297195580                0           0           0
         168           1   1.4976440000000000       -3.2429896092947001       -4.2038601458608440       -3.6119565403240306                0           0           0
         169           1   1.3677140000000001       -1.7326794149049771       -4.0069351253813670       -4.2360392544202776                0           0           0
         170           1  0.87362600000000001      -0.74098357008439919       -3.9620649641777814       -4.7341543666442520                0           0           0
         171           1  0.77448300000000003      -0.48068754859590612       -3.9224328874369285       -3.6393675446885161                0           0           0
         172           1   1.1426689999999999       0.20696570795918490       -4.1810608109125917       -4.4266484249600202                0           0           0
         173           1   1.6053649999999999        1.3806535826211777       -3.8475262425482422       -3.7742742060884322                0           0           0
         174           1  0.81254700000000002        2.3909308642320131       -4.4070007494116954       -4.0156170766318038                0           0           0
         175           1   1.5251770000000000        2.8575593683871254       -3.4451251798041458       -4.4853194151829046                0           0           0
         176           1  0.90739599999999998        3.9008117698231715       -3.9267247849867992       -4.1838810899326493                0           0           0
         177           1  0.91723800000000000        3.4725057431924551       -3.2950215889550996       -3.4585056361201274                0           0           0
         178           1  0.98055700000000001        4.9380494052084813       -4.1311646952339611       -4.2319215860215449                0           0           0
         179           1   1.4378010000000001       -4.9156888454991883       -3.2706962314581665       -4.4118016313208432                0           0           0