LAMMPS data file via write_data, version 17 Nov 2016, timestep = 0
      
  1500 atoms
      
1 atom types
  -5.7235712129999996        5.7235712129999996      xlo xhi
  -5.7235712129999996        5.7235712129999996      ylo yhi
  -5.7235712129999996        5.7235712129999996      zlo zhi
Masses
      
1 1
      
Pair Coeffs # lj/poly
      
                               1 1.0 1.0 2.025 1.25 0.2
      
Atoms # charge
      
           1           1  0.82965299999999997       -5.5529053335542375       -4.8780034989808190       -5.2663271207303808                0           0           0
           2           1   1.5413479999999999       -4.5884678614152570       -5.2695058017317491       -4.7558887163948240                0           0           0
           3           1  0.86062700000000003       -3.8172056493399271       -4.7612041592714540       -5.4944712278233476                0           0           0
           4           1   1.2325940000000000       -3.1912688275465948       -5.2211868921724864       -4.6672209640587621                0           0           0
           5           1  0.92110899999999996       -2.0952627707856020       -4.8953601065523804       -4.8998972119387965                0           0           0
           6           1   1.5043869999999999       -1.0425597366325761       -4.7230554394830868       -5.4632033286052595                0           0           0
           7           1  0.88103100000000001      -0.19909897637206608       -5.1617272331923889       -4.7442950183201837                0           0           0
           8           1  0.92227999999999999       0.29889061853566190       -4.6654835790398428       -5.4703273275327859                0           0           0
           9           1   1.5129459999999999       0.93700242089235974       -5.5247029675508594       -4.9825119029222629                0           0           0
          10           1  0.87097899999999995        2.1152504857617673       -5.5806261252405287       -4.7748381990936171                0           0           0
          11           1  0.82823300000000000        1.9343634131952321       -5.3951003585153092       -5.6991339225023454                0           0           0
          12           1   1.3333429999999999        3.0279532097368396       -5.3278803548278573       -5.5339954714734532                0           0           0
          13           1  0.81986499999999995        4.1196602422049047       -5.3060948875575455       -5.3253430254616339                0           0           0
          14           1  0.74748000000000003        3.5241626278942029       -5.5417142461412627       -4.6475470001558943                0           0           0
          15           1  0.86770400000000003        4.9103149993562223       -4.8158494593871417       -4.9848807296468776                0           0           0
          16           1  0.73948999999999998        4.6860312954618628       -5.6945109472523141       -4.8002347304213364                0           0           0
          17           1   1.1174949999999999       -4.8117088816177596       -4.1471841414973865       -5.5277069873320777                0           0           0
          18           1   1.0167780000000000       -4.0294265412400456       -4.1297753611487371       -4.6475662581282817                0           0           0
          19           1   1.0699300000000000       -2.8739837395295180       -4.0572307445744187       -4.8540807722335222                0           0           0
          20           1  0.76943799999999996       -1.9755175525080779       -4.0810177673870864       -5.3002508640130701                0           0           0
          21           1   1.0829869999999999      -0.23621631161929990       -3.7586839409534725       -5.6618293074747754                0           0           0
          22           1   1.3859269999999999       0.98270615504909831       -3.6825675725643179       -5.3613732557439677                0           0           0
          23           1  0.77240699999999995        1.0847056198240157       -4.5020932300885272       -4.6549493096044694                0           0           0
          24           1   1.1917739999999999        2.0241526655606101       -4.5402107652758739       -5.0009400819215672                0           0           0
          25           1  0.76583000000000001        1.8147847337217211       -3.5371480406912017       -4.7342948786454553                0           0           0
          26           1  0.97774899999999998        2.1654184424193135       -3.5636938236761466       -5.6214006306854971                0           0           0
          27           1  0.83108000000000004        2.9262945866046142       -4.2009290073456818       -5.3792540032441227                0           0           0
          28           1   1.2215430000000000        3.9761336935343561       -4.2745670765658623       -5.2405958770225203                0           0           0
          29           1   1.3806490000000000        5.3883249299078866       -3.8317877953872488       -5.3290985219371123                0           0           0
          30           1   1.0400879999999999       -5.1882123149364805       -2.9539209236297466       -5.6232517915128657                0           0           0
          31           1  0.77126099999999997       -4.3012301289042210       -3.2817241799566230       -5.2687162494029485                0           0           0
          32           1  0.92384800000000000       -4.3007297126919264       -2.3794185120182969       -4.9371608767690418                0           0           0
          33           1  0.88862900000000000       -2.3263292186983571       -3.1363409209581388       -4.8732445072214343                0           0           0
          34           1  0.86158199999999996       -3.0723102715620634       -2.8357214471575167       -5.5392171431520687                0           0           0
          35           1   1.1209890000000000       -1.3093885747942853       -3.3589680184073458       -5.2635623078314708                0           0           0
          36           1   1.2420370000000001      -0.20163665316628610       -2.9255009545074988       -4.7204745311321439                0           0           0
          37           1  0.88274100000000000       -1.0395582122354936       -2.3305251991823548       -5.1671369080704919                0           0           0
          38           1   1.0668899999999999       0.70676837980787877       -2.4473340482050925       -5.4141863731872721                0           0           0
          39           1   1.1892499999999999        1.8818232659002279       -2.5774728620695071       -5.0898490705591124                0           0           0
          40           1  0.78319600000000000        2.8373832650883646       -2.8149273063991913       -5.3718009815448644                0           0           0
          41           1  0.77194799999999997        2.7317716784461741       -2.3006039807298619       -4.5326879159052735                0           0           0
          42           1  0.74873199999999995        3.6642923680351167       -3.3009957734945461       -5.1974914964035426                0           0           0
          43           1   1.0263439999999999        4.5024872338131612       -3.2481160765167063       -4.7648974198808132                0           0           0
          44           1  0.81308199999999997        4.5405896970277801       -2.5173704749275272       -5.4316420499682510                0           0           0
          45           1   1.1161060000000000        3.6581925862836275       -2.3526489097730279       -4.9598858908475938                0           0           0
          46           1   1.2125560000000000        5.4137578218412372       -2.4155778847454723       -4.8919354913952553                0           0           0
          47           1  0.74192100000000005       -5.0803670661862776       -2.0689970997943616       -5.2757115204109732                0           0           0
          48           1  0.91800800000000005       -4.1366364584965813       -1.5483560293089162       -5.5018779161271025                0           0           0
          49           1  0.83222700000000005       -3.2247545299070195       -1.9482961988071983       -5.2745842036856079                0           0           0
          50           1   1.0095200000000000       -2.5256212802677709       -1.2224440692693310       -4.8874266427774034                0           0           0
          51           1   1.4893410000000000       -2.1327671931993084       -2.1936665615289890       -5.5791228320690971                0           0           0
          52           1   1.2179240000000000       -1.3388618955086109       -1.3224950637456621       -4.7693663366538885                0           0           0
          53           1   1.0644769999999999      -0.21513152749448583       -1.6542532843850912       -5.2161012695380231                0           0           0
          54           1   1.3780330000000001       0.97261259697631797       -1.2736421785893182       -5.0275204994850293                0           0           0
          55           1   1.0451729999999999        2.1562885121411108       -1.4294091876016051       -4.8215507473936050                0           0           0
          56           1  0.79520100000000005        3.6438605316121926       -1.3656376364913427       -5.2504684663584111                0           0           0
          57           1   1.0204660000000001        4.4594316791143385       -1.5607576201875561       -4.6101293052534560                0           0           0
          58           1  0.80856499999999998        5.3553729496019464       -1.3705073527049079       -5.0338268049406416                0           0           0
          59           1   1.3538969999999999       -5.0444307332742246       -1.0702617716888021       -4.9835607317046886                0           0           0
          60           1  0.75854699999999997       -4.0564993274357137      -0.67478788393631017       -5.1855002198763502                0           0           0
          61           1  0.73175199999999996       -2.4317024690834130      -0.43004185549105411       -5.3676918710853734                0           0           0
          62           1   1.0328729999999999       -3.2216220848792489      -0.31937093025549057       -4.8586103282806521                0           0           0
          63           1  0.75083299999999997       -1.6046640291045113      -0.29541370360411001       -5.2694472115364857                0           0           0
          64           1  0.82179500000000005       -1.8852585317277666       -1.0767074681517013       -5.6611222463060189                0           0           0
          65           1  0.90665300000000004      -8.10902631389343043E-003 -0.65540571508443701       -4.8669265857152455                0           0           0
          66           1  0.88653700000000002      -0.93584307269702283      -0.30215322780163678       -4.6178941206960111                0           0           0
          67           1   1.1960150000000001       0.61480507848436439      -5.80930817364473384E-002  -5.5083483822898325                0           0           0
          68           1   1.0855290000000000        1.7632434214473260      -0.25703613625390886       -4.9773165491043034                0           0           0
          69           1  0.97821599999999997        2.8750972713768608      -0.73541868313559622       -5.2579188285465976                0           0           0
          70           1   1.4363210000000000        3.8760557155090165      -0.46294769083840670       -4.6845438341607615                0           0           0
          71           1   1.1656560000000000        5.2197966569981684      -0.35611881551266844       -4.9024277662982518                0           0           0
          72           1   1.0241950000000000       -5.1431664096845484       5.85143768722868884E-002  -5.4466247093421494                0           0           0
          73           1  0.83424600000000004       -4.6113469352195029       0.76543885340639140       -4.9657424841531439                0           0           0
          74           1   1.2242780000000000       -5.7181216437165254       0.90250223360335458       -4.8379454694962485                0           0           0
          75           1   1.2615920000000000       -3.9356826798734788       0.26536253423727629       -5.6884343424076365                0           0           0
          76           1  0.96946900000000003       -2.7361908782752868       0.42409247976360565       -5.5137548527851834                0           0           0
          77           1   1.0105480000000000       -3.3822750791656393       0.85977195867631551       -4.7510690666301123                0           0           0
          78           1   1.1696240000000000       -1.6396194824704198       0.71646996698496945       -5.3739533089690337                0           0           0
          79           1  0.91265600000000002       -2.2991517508947026        1.0218872836376445       -4.5788657155983312                0           0           0
          80           1  0.77751099999999995      -0.66790979488081881       0.45344479899932288       -5.3564055552397036                0           0           0
          81           1  0.88239800000000002       0.43383189455758142        1.0353735365487946       -5.3354892096768909                0           0           0
          82           1  0.79924200000000001        1.0777588087651457       0.44444375730044783       -4.6717259613371986                0           0           0
          83           1   1.1011640000000000        1.4546485422479281       0.81774618823425449       -5.6057774637446771                0           0           0
          84           1   1.4763390000000001        2.1768797073059964       0.88814868205932029       -4.5367750365213002                0           0           0
          85           1  0.85063500000000003        2.9575997168309538       0.18926324429797514       -4.8880243977769835                0           0           0
          86           1  0.83979999999999999        3.6446746668268055       0.20977928378946054       -5.5436849163066650                0           0           0
          87           1   1.1119710000000000        4.4788936055122068       0.66437198692955501       -5.0017954613921036                0           0           0
          88           1  0.92940100000000003       -5.4571727189230597        1.9592258814323502       -5.1010584826960708                0           0           0
          89           1  0.98624599999999996       -4.6167061310097921        2.3563368785207928       -5.6293373064916334                0           0           0
          90           1  0.88377099999999997       -3.8570575162399443        1.4233185262000827       -5.5097604351875846                0           0           0
          91           1   1.4289920000000000       -4.4198329966834615        1.7665944322837994       -4.5673433682061360                0           0           0
          92           1   1.2863240000000000       -2.6712967470456119        1.6164993416688000       -5.4871372617333103                0           0           0
          93           1  0.83280200000000004       -3.2637137900306725        1.8629169927890645       -4.5870687938843586                0           0           0
          94           1  0.91532000000000002       -1.5867590195760393        1.8509325324285717       -5.2049153150516423                0           0           0
          95           1   1.0549850000000001      -0.61722997423765324        1.4251254925201113       -5.3279223553745512                0           0           0
          96           1   1.4844250000000001       0.40506869850160943        2.1891554834615512       -5.4349053483874696                0           0           0
          97           1  0.86414400000000002        1.4750611952254102        1.8109712157209801       -5.3057957923066752                0           0           0
          98           1   1.3125690000000001        2.4417846379951804        2.2805025678928832       -5.1463078660216031                0           0           0
          99           1  0.82318199999999997        2.3806201944796612        1.2555514929950871       -5.6213804750194338                0           0           0
         100           1   1.2526790000000001        3.4005897310571047        1.2319098054772741       -5.3628783416509762                0           0           0
         101           1   1.3715560000000000        4.6935109641426642        1.9446426977804592       -5.2165739859234517                0           0           0
         102           1   1.1018300000000001       -5.2714850222733842        2.9218033720044989       -4.6591569254443872                0           0           0
         103           1   1.0932630000000001       -3.5690544440221270        2.4590580101943260       -5.3435865033481997                0           0           0
         104           1  0.91189900000000002       -4.1200018576495676        2.8848570504654347       -4.5130098474153399                0           0           0
         105           1  0.73728300000000002       -2.6132997139628578        2.6403877820157611       -5.2592388989321028                0           0           0
         106           1  0.79696199999999995       -3.3103960866901243        3.4000763810107859       -5.2523601069695705                0           0           0
         107           1   1.2884510000000000       -1.6763802342182546        2.9532248312340226       -4.9460562101053380                0           0           0
         108           1  0.90628100000000000      -0.72713552055441522        2.3970215861527304       -4.7434846575318881                0           0           0
         109           1   1.2439519999999999      -0.38519259072849721        3.3587979237773382       -5.1976608227022041                0           0           0
         110           1  0.85372000000000003      -0.78240989092337010        2.4262689325211735       -5.7190441699171375                0           0           0
         111           1  0.79320299999999999       0.61236878744491374        3.3020497730027074       -5.5979613471048912                0           0           0
         112           1  0.83657099999999995        1.1739721588802849        2.4693998196307572       -4.6469968656623806                0           0           0
         113           1  0.79898800000000003        2.9595867708919421        3.1906905781674393       -4.7860010590564208                0           0           0
         114           1  0.97961900000000002        3.5945915370272790        2.3826597743724864       -4.7884969145972889                0           0           0
         115           1  0.80490099999999998        4.3393404111968366        2.9628552995334712       -5.0317803339612155                0           0           0
         116           1  0.76785300000000001        5.2766354318952899        2.8443932429973078       -5.1959684844464000                0           0           0
         117           1  0.78729899999999997       -4.9550759475524337        4.4926627841627234       -5.4879023460683083                0           0           0
         118           1  0.86933700000000003       -5.5496486182026485        3.5897166369946323       -5.4419592269990931                0           0           0
         119           1   1.4795579999999999       -4.3757976677910886        3.5604172629754345       -5.4170572531057353                0           0           0
         120           1   1.1486650000000000       -3.1824078340312769        4.3769934901380640       -5.0855141367558279                0           0           0
         121           1  0.75789499999999999       -2.3876143867705308        3.7411797635384776       -4.9424504585015949                0           0           0
         122           1  0.80026200000000003       -2.3188105665780268        4.4458867938750739       -5.6163346475349627                0           0           0
         123           1  0.84546600000000005       -1.5245279555435030        3.9568763229063748       -5.5386759839346871                0           0           0
         124           1  0.74727200000000005       -1.2035182315347894        3.8577794235497933       -4.6781929022237012                0           0           0
         125           1   1.1842509999999999       -1.9070830989794869        4.6005319381838525       -4.6947370503854460                0           0           0
         126           1   1.0372950000000001      -0.65541998402026813        4.5162424243482633       -5.4064743238406052                0           0           0
         127           1  0.75573400000000002       0.26263549642357553        4.1600106738828213       -5.1406687720102102                0           0           0
         128           1  0.90554000000000001        1.2378378183644889        4.0862604989921447       -5.6171313323207519                0           0           0
         129           1  0.73019400000000001        1.8094540010257241        4.2151459119461983       -4.6936418802748223                0           0           0
         130           1   1.1501790000000001        2.1503907910153792        3.5487672073375602       -5.3279559506527576                0           0           0
         131           1   1.0361840000000000        3.0260232204668114        4.2484844444865804       -5.0786608088871663                0           0           0
         132           1  0.78415599999999996        3.9309518186664096        3.9060422353703448       -5.1495804517491708                0           0           0
         133           1  0.84128000000000003        4.6834040095154545        4.1799989239530717       -4.6305074054036712                0           0           0
         134           1   1.3047489999999999        4.8099032645110444        3.6865383312492526       -5.6363792548575837                0           0           0
         135           1  0.87163800000000002       -5.3693624464401841        5.3261603886379749       -5.1929441881995428                0           0           0
         136           1   1.1479109999999999       -4.3681740927965924        4.7489651695869171       -4.6958274278591379                0           0           0
         137           1  0.85967499999999997       -3.6124180282767879        5.3393221725140165       -5.1030739627844817                0           0           0
         138           1  0.80051799999999995       -4.4938923384081289        5.3878697309161439       -5.5098832094363868                0           0           0
         139           1   1.1004989999999999       -2.5971339680371535        5.4349621603868385       -5.4088134783089679                0           0           0
         140           1  0.95438500000000004       -1.5544248259582574        5.6944459390848881       -5.2004280827252627                0           0           0
         141           1  0.98720399999999997      -0.34697243078235385        5.6404829831708305       -5.5591962058674849                0           0           0
         142           1  0.86126300000000000       0.21776509195089044        5.0140851659957129       -4.8428948669091074                0           0           0
         143           1  0.79245800000000000        1.0867430457568474        4.7001016175470749       -4.8029620852732515                0           0           0
         144           1   1.2686580000000001        1.9929592230178050        4.9419832138851714       -5.3315308699576640                0           0           0
         145           1  0.86478800000000000        2.9191396572349095        5.2682940175430808       -4.8632803081491467                0           0           0
         146           1  0.73688299999999995        3.1229072237954725        5.0155672567799723       -5.7118889616849806                0           0           0
         147           1   1.4304490000000001        3.9918946061999225        4.9927961892524682       -4.9142128812356374                0           0           0
         148           1  0.76117100000000004        5.1009822399744156        5.0318280197186169       -5.0221605008662964                0           0           0
         149           1  0.81904200000000005        4.6130412331621002        4.8792273243514455        5.6728442227807232                0           0           0
         150           1  0.74355499999999997       -5.1816959818405781       -5.2275530579686089       -3.7853137156807524                0           0           0
         151           1  0.76271500000000003       -3.9055682100226399       -5.0057590067711475       -3.9564840948061653                0           0           0
         152           1  0.76898400000000000       -2.4941504228739344       -4.8049888823690852       -4.0492813047702825                0           0           0
         153           1   1.0236600000000000       -3.1915165991087302       -5.5619161585728927       -3.5265178365802923                0           0           0
         154           1  0.73077700000000001       -1.4164715857465309       -5.0712840116057372       -3.6723654417963103                0           0           0
         155           1   1.1202880000000000       -2.0397535871785575       -5.6797307963320662       -4.1919495950230203                0           0           0
         156           1  0.76807899999999996       -1.2247297048126251       -5.1522332308469450       -4.4894541988984482                0           0           0
         157           1   1.3321630000000000      -0.40986061207976121       -4.9721171413388401       -3.6602412766076062                0           0           0
         158           1  0.80179999999999996       0.66380946158669829       -4.9153537029062289       -3.9439190273089584                0           0           0
         159           1  0.94373200000000002        1.6174264260093869       -5.0664542299486195       -4.0345534968914141                0           0           0
         160           1  0.95481799999999994        3.1722787889023518       -4.6784593029007553       -4.5105955448233050                0           0           0
         161           1   1.4699640000000000        2.7733716174369594       -5.6467404060541231       -3.8615322132249963                0           0           0
         162           1   1.3309860000000000        4.2467534308686261       -5.0910632055360985       -4.0899952058769120                0           0           0
         163           1   1.1672389999999999        5.5605503025188217       -5.4964695944096844       -4.4562009773757083                0           0           0
         164           1  0.96901499999999996       -5.4401325808370879       -4.3955482700695736       -4.4237889637254089                0           0           0
         165           1   1.1382319999999999       -4.6494472977679937       -4.3838313275085614       -3.6079361297628241                0           0           0
         166           1   1.0295930000000000       -5.6946903627081626       -3.7171026184686933       -3.5822772211176304                0           0           0
         167           1  0.75638000000000005       -4.1069190609036799       -3.5471631734137574       -3.8361635932851050                0           0           0
         168           1   1.4976440000000000       -3.2695205721782599       -4.1930624359259863       -3.6188779114913570                0           0           0
         169           1   1.3677140000000001       -1.8398232252676983       -3.9902498998310216       -4.2009530279953884                0           0           0
         170           1  0.87362600000000001      -0.83244146928932672       -4.3108791317964643       -4.4416324925649979                0           0           0
         171           1  0.77448300000000003      -0.48189882287343266       -3.9090871915051397       -3.6636991631826259                0           0           0
         172           1   1.1426689999999999       0.18285468708659014       -4.1442266089556190       -4.4635225628491231                0           0           0
         173           1   1.6053649999999999        1.3744244003375812       -3.8507808801953427       -3.7910602787299297                0           0           0
         174           1  0.81254700000000002        2.3829212861988438       -4.4093598594448702       -4.0234714690929634                0           0           0
         175           1   1.5251770000000000        2.8664077270299497       -3.4530301018535123       -4.4904046395371537                0           0           0
         176           1  0.90739599999999998        3.8965753535080339       -3.9448702238202191       -4.1708879232870171                0           0           0
         177           1  0.91723800000000000        3.4653616678033021       -3.3076390087593648       -3.4543526120489796                0           0           0
         178           1  0.98055700000000001        4.9384701175540968       -4.1429217850818629       -4.2275046537476975                0           0           0
         179           1   1.4378010000000001       -4.9405450215273126       -3.2474941399826096       -4.4124080311982086                0           0           0