LAMMPS data file via write_data, version 17 Nov 2016, timestep = 0
      
  1500 atoms
      
1 atom types
  -5.7235712129999996        5.7235712129999996      xlo xhi
  -5.7235712129999996        5.7235712129999996      ylo yhi
  -5.7235712129999996        5.7235712129999996      zlo zhi
Masses
      
1 1
      
Pair Coeffs # lj/poly
      
                               1 1.0 1.0 2.025 1.25 0.2
      
Atoms # charge
      
           1           1  0.82965299999999997       -5.5418910283021701       -4.8819605472560665       -5.2661441321654392                0           0           0
           2           1   1.5413479999999999       -4.5745591272153687       -5.2717170306780670       -4.7566506591758877                0           0           0
           3           1  0.86062700000000003       -3.7959271114777691       -4.7718633883760226       -5.4910190875129095                0           0           0
           4           1   1.2325940000000000       -3.1680849328414182       -5.2183218810049379       -4.6522014024443257                0           0           0
           5           1  0.92110899999999996       -2.0774902360085328       -4.9042855420195783       -4.9093669749249971                0           0           0
           6           1   1.5043869999999999       -1.0377292951124764       -4.7552271197723295       -5.4723159239930217                0           0           0
           7           1  0.88103100000000001      -0.20203336669015126       -5.1720964278694561       -4.7391990441645948                0           0           0
           8           1  0.92227999999999999       0.28209606803182385       -4.6672931558038346       -5.4676674338909539                0           0           0
           9           1   1.5129459999999999       0.93709607445975518       -5.5141964849555247       -4.9747031343638888                0           0           0
          10           1  0.87097899999999995        2.1154399973068250       -5.5787140167103662       -4.7691066686590524                0           0           0
          11           1  0.82823300000000000        1.9392579435098556       -5.3953282806249829       -5.6932703746645927                0           0           0
          12           1   1.3333429999999999        3.0344040161544754       -5.3240109179900017       -5.5295267626974720                0           0           0
          13           1  0.81986499999999995        4.1259092499640637       -5.3075504256404127       -5.3191476200628749                0           0           0
          14           1  0.74748000000000003        3.5255343071181340       -5.5390932225874741       -4.6420918064590619                0           0           0
          15           1  0.86770400000000003        4.9248579493755429       -4.8178345069076043       -4.9799690952307731                0           0           0
          16           1  0.73948999999999998        4.6920477502343605       -5.6968325725398437       -4.7972031917773261                0           0           0
          17           1   1.1174949999999999       -4.7970842540186807       -4.1502846547004602       -5.5211532241531334                0           0           0
          18           1   1.0167780000000000       -3.9941244351159879       -4.1453679981886786       -4.6456814915096372                0           0           0
          19           1   1.0699300000000000       -2.8234411882036179       -4.0603915479380621       -4.8346148887574563                0           0           0
          20           1  0.76943799999999996       -1.9468597786752135       -4.0854346906971770       -5.3133697774029889                0           0           0
          21           1   1.0829869999999999      -0.25379456400307188       -3.7670306362671346       -5.6917896546030526                0           0           0
          22           1   1.3859269999999999       0.96680799648098947       -3.6926881332477706       -5.3534254378740416                0           0           0
          23           1  0.77240699999999995        1.1096962907380243       -4.5014994080339861       -4.6361739557006585                0           0           0
          24           1   1.1917739999999999        2.0359977227000643       -4.5380298633188518       -4.9967245158478004                0           0           0
          25           1  0.76583000000000001        1.8028608455457649       -3.5381240684256108       -4.7295795220885690                0           0           0
          26           1  0.97774899999999998        2.1620116130176283       -3.5635405133767568       -5.6148966345851221                0           0           0
          27           1  0.83108000000000004        2.9381637898069037       -4.1937985260090755       -5.3717199968074842                0           0           0
          28           1   1.2215430000000000        3.9934465275848279       -4.2756322499791306       -5.2398537077236043                0           0           0
          29           1   1.3806490000000000        5.3947418765700483       -3.8310495899336003       -5.3274421805904879                0           0           0
          30           1   1.0400879999999999       -5.1625843219037568       -2.9724461659903763       -5.6278836968829111                0           0           0
          31           1  0.77126099999999997       -4.2796643694826120       -3.2895946913636820       -5.2679232000378873                0           0           0
          32           1  0.92384800000000000       -4.2762167722925319       -2.3966367607407393       -4.9356433463325882                0           0           0
          33           1  0.88862900000000000       -2.3140575983957086       -3.1307310909447468       -4.8789120076450274                0           0           0
          34           1  0.86158199999999996       -3.0680557203761225       -2.8370370276055725       -5.5342460879773512                0           0           0
          35           1   1.1209890000000000       -1.3294850532996980       -3.3151420843051866       -5.3208407193774114                0           0           0
          36           1   1.2420370000000001      -0.20668984439325833       -2.9485010851581515       -4.7305175679117033                0           0           0
          37           1  0.88274100000000000       -1.0372322599679631       -2.3156095312416207       -5.1626002315491544                0           0           0
          38           1   1.0668899999999999       0.69645600423286957       -2.4523589013381315       -5.4141463864315771                0           0           0
          39           1   1.1892499999999999        1.8670927519907403       -2.5775630406702952       -5.0867064023318083                0           0           0
          40           1  0.78319600000000000        2.8106716061915940       -2.8146958992986293       -5.3742396629144196                0           0           0
          41           1  0.77194799999999997        2.7213024838779418       -2.2914612435226021       -4.5438012926306772                0           0           0
          42           1  0.74873199999999995        3.6790786176952892       -3.3232486744214804       -5.1713288001251128                0           0           0
          43           1   1.0263439999999999        4.5279206322230419       -3.2041880188207377       -4.7573249399290614                0           0           0
          44           1  0.81308199999999997        4.5617765767243874       -2.4805881566599415       -5.4162708199923895                0           0           0
          45           1   1.1161060000000000        3.6404029167183065       -2.3726255617241612       -4.9791860413859705                0           0           0
          46           1   1.2125560000000000        5.4817215035003084       -2.4297423954002211       -4.9159661259473992                0           0           0
          47           1  0.74192100000000005       -5.0021542509530992       -2.0583602577067719       -5.3624441700001126                0           0           0
          48           1  0.91800800000000005       -4.1493404641065537       -1.5556802190181749       -5.5037589469964363                0           0           0
          49           1  0.83222700000000005       -3.2326752047621330       -1.9498398154202894       -5.2780753072387254                0           0           0
          50           1   1.0095200000000000       -2.5306522214300911       -1.2209229215384729       -4.8834267670132512                0           0           0
          51           1   1.4893410000000000       -2.1355524632399745       -2.1881097538336900       -5.5792584380831443                0           0           0
          52           1   1.2179240000000000       -1.3397049805567143       -1.3165656314368785       -4.7714374766789840                0           0           0
          53           1   1.0644769999999999      -0.21676266616029682       -1.6499085598497620       -5.2212556827934291                0           0           0
          54           1   1.3780330000000001       0.96832616160678420       -1.2761229031437633       -5.0267431272400351                0           0           0
          55           1   1.0451729999999999        2.1526220080425302       -1.4302855819617566       -4.8243598034166446                0           0           0
          56           1  0.79520100000000005        3.6391946634701426       -1.3736542872903481       -5.2535990255739851                0           0           0
          57           1   1.0204660000000001        4.4128300293978917       -1.5958731301099514       -4.6024405109456445                0           0           0
          58           1  0.80856499999999998        5.3244534298252670       -1.3862225227529397       -5.0071854801584523                0           0           0
          59           1   1.3538969999999999       -5.0647701172847555       -1.0805824316458610       -4.9891655832582069                0           0           0
          60           1  0.75854699999999997       -4.0662926069297054      -0.68154337919736996       -5.1851052484274875                0           0           0
          61           1  0.73175199999999996       -2.4360253388073962      -0.43003540090387027       -5.3669793807161748                0           0           0
          62           1   1.0328729999999999       -3.2279676580272945      -0.32009946217114127       -4.8613311779563055                0           0           0
          63           1  0.75083299999999997       -1.6079551497336926      -0.29603608456763020       -5.2679650603220924                0           0           0
          64           1  0.82179500000000005       -1.8910469612848830       -1.0745498367143798       -5.6600052217507031                0           0           0
          65           1  0.90665300000000004      -1.03858899983704234E-002 -0.65315831042268435       -4.8678993344053429                0           0           0
          66           1  0.88653700000000002      -0.93768549701982629      -0.29996233774533465       -4.6179950484925376                0           0           0
          67           1   1.1960150000000001       0.61337607061962807      -5.71952392757868466E-002  -5.5092153017816941                0           0           0
          68           1   1.0855290000000000        1.7598037264596682      -0.25871736563094760       -4.9773000365453450                0           0           0
          69           1  0.97821599999999997        2.8734946684383349      -0.73654217335164507       -5.2600526126366800                0           0           0
          70           1   1.4363210000000000        3.8763500127777153      -0.46706957047466524       -4.6867613435282145                0           0           0
          71           1   1.1656560000000000        5.2164323932391277      -0.36024427048490182       -4.9099792189518494                0           0           0
          72           1   1.0241950000000000       -5.1391264321952281       5.77536195879799763E-002  -5.4432389957197707                0           0           0
          73           1  0.83424600000000004       -4.6087177440338891       0.76664410193755472       -4.9652331065156750                0           0           0
          74           1   1.2242780000000000       -5.7176446943206392       0.90231224435288482       -4.8390521985719674                0           0           0
          75           1   1.2615920000000000       -3.9366805012905450       0.26421765220058990       -5.6893229561767624                0           0           0
          76           1  0.96946900000000003       -2.7365504971658274       0.42496724938690988       -5.5131468812134967                0           0           0
          77           1   1.0105480000000000       -3.3840243538261170       0.85821227860459182       -4.7514773900944709                0           0           0
          78           1   1.1696240000000000       -1.6386143808380185       0.71591464350047485       -5.3735855677764350                0           0           0
          79           1  0.91265600000000002       -2.3020722205614326        1.0181457017297770       -4.5819779254435371                0           0           0
          80           1  0.77751099999999995      -0.66556665386741187       0.45611494636275030       -5.3570961976588949                0           0           0
          81           1  0.88239800000000002       0.43146368781643041        1.0347250803711177       -5.3363273032837135                0           0           0
          82           1  0.79924200000000001        1.0760043364089755       0.44380289221038893       -4.6722630367792073                0           0           0
          83           1   1.1011640000000000        1.4526009825404849       0.81900925169487948       -5.6072078258461779                0           0           0
          84           1   1.4763390000000001        2.1756992056017852       0.88724560704507738       -4.5386709434748678                0           0           0
          85           1  0.85063500000000003        2.9551784430756545       0.18580858153827862       -4.8867205597728232                0           0           0
          86           1  0.83979999999999999        3.6390312118651753       0.21340000872298504       -5.5428143086040489                0           0           0
          87           1   1.1119710000000000        4.4778285585220647       0.66284376073435602       -5.0028177370040847                0           0           0
          88           1  0.92940100000000003       -5.4532696429791834        1.9602495306550809       -5.0975777230638561                0           0           0
          89           1  0.98624599999999996       -4.6144474726911264        2.3568579027339531       -5.6270931531606516                0           0           0
          90           1  0.88377099999999997       -3.8554676708754760        1.4265897777455985       -5.5085188655722872                0           0           0
          91           1   1.4289920000000000       -4.4181678332486909        1.7657921369816867       -4.5641793760441249                0           0           0
          92           1   1.2863240000000000       -2.6716662176173682        1.6172431131177918       -5.4885152071698204                0           0           0
          93           1  0.83280200000000004       -3.2652664868929304        1.8626306734558646       -4.5912008403356781                0           0           0
          94           1  0.91532000000000002       -1.5870098304593281        1.8510950745808099       -5.2072219485334950                0           0           0
          95           1   1.0549850000000001      -0.61682760042538920        1.4268050521803977       -5.3300328518428159                0           0           0
          96           1   1.4844250000000001       0.40732188948129888        2.1878849636588891       -5.4389674067187270                0           0           0
          97           1  0.86414400000000002        1.4767964129289268        1.8109262646179891       -5.3059062493125806                0           0           0
          98           1   1.3125690000000001        2.4430263981193665        2.2800515146584743       -5.1471500738887608                0           0           0
          99           1  0.82318199999999997        2.3796203951740296        1.2571250483090628       -5.6230395229730243                0           0           0
         100           1   1.2526790000000001        3.4000455916294339        1.2354415392478986       -5.3642044643501166                0           0           0
         101           1   1.3715560000000000        4.6954578086478698        1.9436715317792439       -5.2154821243700686                0           0           0
         102           1   1.1018300000000001       -5.2701359685484981        2.9237538391326119       -4.6577415279924264                0           0           0
         103           1   1.0932630000000001       -3.5669226127121862        2.4637074413104862       -5.3439594315152767                0           0           0
         104           1  0.91189900000000002       -4.1204219674423319        2.8848819455638655       -4.5128717688294451                0           0           0
         105           1  0.73728300000000002       -2.6119027862083328        2.6412338596122211       -5.2596131908671531                0           0           0
         106           1  0.79696199999999995       -3.3070232497158929        3.4060962015568510       -5.2522503508113969                0           0           0
         107           1   1.2884510000000000       -1.6759287454139011        2.9535485334143452       -4.9482215357414141                0           0           0
         108           1  0.90628100000000000      -0.72727603623509562        2.3957269275900863       -4.7457518416502715                0           0           0
         109           1   1.2439519999999999      -0.38410797800441632        3.3549150888519303       -5.2009103654897224                0           0           0
         110           1  0.85372000000000003      -0.78080810948243240        2.4259728198563959       -5.7218975619467809                0           0           0
         111           1  0.79320299999999999       0.61391655193039618        3.3016978247608098       -5.5989359718050267                0           0           0
         112           1  0.83657099999999995        1.1743954433830091        2.4692166213442395       -4.6491305109310623                0           0           0
         113           1  0.79898800000000003        2.9610993085718729        3.1889943728611918       -4.7855391615809610                0           0           0
         114           1  0.97961900000000002        3.5961153029134376        2.3808387741871844       -4.7892646311734817                0           0           0
         115           1  0.80490099999999998        4.3405609094206437        2.9615668865012612       -5.0316801113865584                0           0           0
         116           1  0.76785300000000001        5.2770371546593200        2.8442714229497348       -5.1953577240484297                0           0           0
         117           1  0.78729899999999997       -4.9512223278400977        4.4928156530404877       -5.4865585651632616                0           0           0
         118           1  0.86933700000000003       -5.5476344127686552        3.5915322057579147       -5.4411579767865010                0           0           0
         119           1   1.4795579999999999       -4.3735955135520586        3.5613665857456045       -5.4165976705644789                0           0           0
         120           1   1.1486650000000000       -3.1826401378558762        4.3848437894691905       -5.0827821916384970                0           0           0
         121           1  0.75789499999999999       -2.3871131529346727        3.7449419150371419       -4.9455808330071962                0           0           0
         122           1  0.80026200000000003       -2.3196546844561370        4.4448576665545918       -5.6126479573267121                0           0           0
         123           1  0.84546600000000005       -1.5259086953531753        3.9550792946638182       -5.5382402584168577                0           0           0
         124           1  0.74727200000000005       -1.2031377551316282        3.8571614240961996       -4.6778906179828121                0           0           0
         125           1   1.1842509999999999       -1.9055788539261824        4.6028771592949145       -4.6929767928347843                0           0           0
         126           1   1.0372950000000001      -0.65551412814620402        4.5111209734646422       -5.4086089015620997                0           0           0
         127           1  0.75573400000000002       0.26071315451684995        4.1606669660386828       -5.1395345309660492                0           0           0
         128           1  0.90554000000000001        1.2425981108985571        4.0840647026788908       -5.6167632736991333                0           0           0
         129           1  0.73019400000000001        1.8132796469871320        4.2095723311832707       -4.6997246931557868                0           0           0
         130           1   1.1501790000000001        2.1540015028735500        3.5460951336768165       -5.3299233577860727                0           0           0
         131           1   1.0361840000000000        3.0255843574526118        4.2510828819991939       -5.0753733337827800                0           0           0
         132           1  0.78415599999999996        3.9313550116289928        3.9087939516540047       -5.1473659079134890                0           0           0
         133           1  0.84128000000000003        4.6850152262258611        4.1822206961627586       -4.6283991540885019                0           0           0
         134           1   1.3047489999999999        4.8110245269042302        3.6875493715004009       -5.6333634942608510                0           0           0
         135           1  0.87163800000000002       -5.3610872355132910        5.3229994952395678       -5.1970224549082449                0           0           0
         136           1   1.1479109999999999       -4.3628056886794431        4.7501084171444674       -4.6935579835024797                0           0           0
         137           1  0.85967499999999997       -3.6111001268521972        5.3535443868023833       -5.0958258709551671                0           0           0
         138           1  0.80051799999999995       -4.4874979168939717        5.3882344694091486       -5.5113958355974724                0           0           0
         139           1   1.1004989999999999       -2.5949586631274952        5.4371978034390107       -5.4117039780063276                0           0           0
         140           1  0.95438500000000004       -1.5478084926498674        5.6697169108927277       -5.1905445950896683                0           0           0
         141           1  0.98720399999999997      -0.33267247826426249        5.6310456017717776       -5.5500949646379159                0           0           0
         142           1  0.86126300000000000       0.23052258599109532        5.0186064755302038       -4.8423498811287375                0           0           0
         143           1  0.79245800000000000        1.0943281074565698        4.6990381454885686       -4.7892032896623125                0           0           0
         144           1   1.2686580000000001        1.9923460819409220        4.9453932252735928       -5.3288140838797666                0           0           0
         145           1  0.86478800000000000        2.9182569949417267        5.2720731380534307       -4.8583859050283387                0           0           0
         146           1  0.73688299999999995        3.1263323210909491        5.0177352179998671       -5.7058930429190724                0           0           0
         147           1   1.4304490000000001        3.9917971104641143        4.9951970688269096       -4.9112354150610482                0           0           0
         148           1  0.76117100000000004        5.1028674494711392        5.0291485132135492       -5.0207323730182702                0           0           0
         149           1  0.81904200000000005        4.6150428254384632        4.8800502501309193        5.6760776644616815                0           0           0
         150           1  0.74355499999999997       -5.1725608252758146       -5.2332723657373315       -3.7925593791295480                0           0           0
         151           1  0.76271500000000003       -3.8953271552725841       -5.0042304910799205       -3.9558106887034765                0           0           0
         152           1  0.76898400000000000       -2.4449158478159276       -4.7748312356840605       -4.0549893232712080                0           0           0
         153           1   1.0236600000000000       -3.1883061525794392       -5.5592510466356853       -3.5134136256039632                0           0           0
         154           1  0.73077700000000001       -1.4875199511767070       -4.9096584862062542       -3.7552630961973588                0           0           0
         155           1   1.1202880000000000       -2.0098183881927096       -5.6677731574399548       -4.1817578872937275                0           0           0
         156           1  0.76807899999999996       -1.1656337484742858       -5.1561156408066928       -4.4899000563225098                0           0           0
         157           1   1.3321630000000000      -0.46472392490022951       -4.9656929191558490       -3.6729173147743985                0           0           0
         158           1  0.80179999999999996       0.67959336421255934       -4.9366774241201359       -3.9286533349517425                0           0           0
         159           1  0.94373200000000002        1.6344886351081582       -5.0614305955190888       -4.0203487029675493                0           0           0
         160           1  0.95481799999999994        3.1806919136872480       -4.6707343943717863       -4.5089149083080953                0           0           0
         161           1   1.4699640000000000        2.7765521752537321       -5.6385731287984564       -3.8568121241088189                0           0           0
         162           1   1.3309860000000000        4.2534819648926554       -5.0881677233331670       -4.0923755479647470                0           0           0
         163           1   1.1672389999999999        5.5705998320575887       -5.5087143580337479       -4.4605807037043066                0           0           0
         164           1  0.96901499999999996       -5.4404936980659349       -4.4050190584234166       -4.4204004501185823                0           0           0
         165           1   1.1382319999999999       -4.6424462527099930       -4.3903168438296927       -3.6085003600137155                0           0           0
         166           1   1.0295930000000000       -5.6919731864320280       -3.7216821878877417       -3.5806890468169650                0           0           0
         167           1  0.75638000000000005       -4.0873213262927770       -3.5682996550952022       -3.8303391981768362                0           0           0
         168           1   1.4976440000000000       -3.2431418353475401       -4.2037349152792238       -3.6119476800841062                0           0           0
         169           1   1.3677140000000001       -1.7324031093519738       -4.0068859795171266       -4.2363288809630619                0           0           0
         170           1  0.87362600000000001      -0.74074100940136756       -3.9614744478231216       -4.7343623416762197                0           0           0
         171           1  0.77448300000000003      -0.48040072186792759       -3.9224373271877613       -3.6392459070915799                0           0           0
         172           1   1.1426689999999999       0.20697064393243192       -4.1808252305982556       -4.4264076244834811                0           0           0
         173           1   1.6053649999999999        1.3806565037649694       -3.8472383437559641       -3.7741685254942210                0           0           0
         174           1  0.81254700000000002        2.3907725647338776       -4.4069303677988803       -4.0152958474061613                0           0           0
         175           1   1.5251770000000000        2.8574699420340313       -3.4448417065195303       -4.4851694443606771                0           0           0
         176           1  0.90739599999999998        3.9006636638812733       -3.9264743525157781       -4.1836629435924060                0           0           0
         177           1  0.91723800000000000        3.4723639649911036       -3.2948864999249299       -3.4584234007423005                0           0           0
         178           1  0.98055700000000001        4.9378362862608025       -4.1308292420907167       -4.2318905787441921                0           0           0
         179           1   1.4378010000000001       -4.9157077506076554       -3.2703510646913694       -4.4117317439984527                0           0           0