LAMMPS data file via write_data, version 17 Nov 2016, timestep = 0
      
  1500 atoms
      
1 atom types
  -5.7235712129999996        5.7235712129999996      xlo xhi
  -5.7235712129999996        5.7235712129999996      ylo yhi
  -5.7235712129999996        5.7235712129999996      zlo zhi
Masses
      
1 1
      
Pair Coeffs # lj/poly
      
                               1 1.0 1.0 2.025 1.25 0.2
      
Atoms # charge
      
           1           1  0.82965299999999997       -5.5403143423205661       -4.8813322034058917       -5.2672382581090069                0           0           0
           2           1   1.5413479999999999       -4.5731129962328696       -5.2703419881040716       -4.7570889278618145                0           0           0
           3           1  0.86062700000000003       -3.7969203950718438       -4.7701265920687952       -5.4918073507900482                0           0           0
           4           1   1.2325940000000000       -3.1664916897187831       -5.2193581979461943       -4.6545212240921989                0           0           0
           5           1  0.92110899999999996       -2.0788017973478992       -4.9030353886287621       -4.9120272813592614                0           0           0
           6           1   1.5043869999999999       -1.0363228576185088       -4.7430146463707823       -5.4663016143717744                0           0           0
           7           1  0.88103100000000001      -0.20150315175801570       -5.1859691805784358       -4.7504300338081809                0           0           0
           8           1  0.92227999999999999       0.28216400380873452       -4.6628138547454228       -5.4655254397434891                0           0           0
           9           1   1.5129459999999999       0.94295087234832398       -5.5035930706752563       -4.9687863808365362                0           0           0
          10           1  0.87097899999999995        2.1223967955909409       -5.5697760916560366       -4.7641964911680370                0           0           0
          11           1  0.82823300000000000        1.9438145803614706       -5.3887205004496481       -5.6885717107664941                0           0           0
          12           1   1.3333429999999999        3.0429936113798934       -5.3152453911348676       -5.5215646134261513                0           0           0
          13           1  0.81986499999999995        4.1319719927715717       -5.3024979533386114       -5.3184786366160850                0           0           0
          14           1  0.74748000000000003        3.5292269920315746       -5.5385343782972232       -4.6365996519237340                0           0           0
          15           1  0.86770400000000003        4.9292899773287644       -4.8168839312496416       -4.9790923891679162                0           0           0
          16           1  0.73948999999999998        4.6939257424900180       -5.6967399981485247       -4.7965552683703709                0           0           0
          17           1   1.1174949999999999       -4.7966622972895525       -4.1494880534680298       -5.5230608293083181                0           0           0
          18           1   1.0167780000000000       -3.9953800425437151       -4.1433609365768449       -4.6463000491735773                0           0           0
          19           1   1.0699300000000000       -2.8256413160048703       -4.0591140846624052       -4.8341518199398514                0           0           0
          20           1  0.76943799999999996       -1.9502646242341366       -4.0821046357215387       -5.3128189877723822                0           0           0
          21           1   1.0829869999999999      -0.25053148099034317       -3.7615894983735987       -5.6894673127002013                0           0           0
          22           1   1.3859269999999999       0.97016116098479532       -3.6923296948365274       -5.3534387732961273                0           0           0
          23           1  0.77240699999999995        1.1163932780122430       -4.4930218508986082       -4.6318968467806272                0           0           0
          24           1   1.1917739999999999        2.0398575196088267       -4.5325820722712162       -4.9968298836251455                0           0           0
          25           1  0.76583000000000001        1.8055406114965251       -3.5363903500643667       -4.7293688012592670                0           0           0
          26           1  0.97774899999999998        2.1639445456000690       -3.5630615817359725       -5.6173104333642723                0           0           0
          27           1  0.83108000000000004        2.9431577081212854       -4.1903378265244049       -5.3708452092537033                0           0           0
          28           1   1.2215430000000000        3.9980315514861093       -4.2712904541998924       -5.2364641697618328                0           0           0
          29           1   1.3806490000000000        5.3957516542595787       -3.8294655901778762       -5.3290963932277586                0           0           0
          30           1   1.0400879999999999       -5.1627733238764026       -2.9715427633267271       -5.6302916715044331                0           0           0
          31           1  0.77126099999999997       -4.2812998908812263       -3.2873618831039382       -5.2687253145945210                0           0           0
          32           1  0.92384800000000000       -4.2772227134156235       -2.3946118851216238       -4.9367621141032805                0           0           0
          33           1  0.88862900000000000       -2.3146526522939310       -3.1299087135472163       -4.8797941793536426                0           0           0
          34           1  0.86158199999999996       -3.0677964243698317       -2.8359113280576627       -5.5352929247727385                0           0           0
          35           1   1.1209890000000000       -1.3294192354641323       -3.3142534818100984       -5.3213102800788725                0           0           0
          36           1   1.2420370000000001      -0.20614483309700926       -2.9455954470947545       -4.7302204608781864                0           0           0
          37           1  0.88274100000000000       -1.0371670235263881       -2.3148447211200809       -5.1635680915034365                0           0           0
          38           1   1.0668899999999999       0.69640006282096412       -2.4525365381205591       -5.4158667147533608                0           0           0
          39           1   1.1892499999999999        1.8676890767246830       -2.5774276660140516       -5.0887583894986852                0           0           0
          40           1  0.78319600000000000        2.8123849601499735       -2.8142176100639880       -5.3756124921070008                0           0           0
          41           1  0.77194799999999997        2.7208189356991550       -2.2890062779370615       -4.5452466063522881                0           0           0
          42           1  0.74873199999999995        3.6789891001470671       -3.3200772739638040       -5.1737845369566546                0           0           0
          43           1   1.0263439999999999        4.5282545232618610       -3.2024088222058271       -4.7583528399857702                0           0           0
          44           1  0.81308199999999997        4.5622461336485252       -2.4800998972469137       -5.4186526727744333                0           0           0
          45           1   1.1161060000000000        3.6412780916734491       -2.3701837964639387       -4.9791777046848953                0           0           0
          46           1   1.2125560000000000        5.4817246254202736       -2.4286438602100957       -4.9177763061160107                0           0           0
          47           1  0.74192100000000005       -5.0053227729828658       -2.0579590454609074       -5.3615591651292691                0           0           0
          48           1  0.91800800000000005       -4.1492868669109528       -1.5540586760524304       -5.5048220503431402                0           0           0
          49           1  0.83222700000000005       -3.2327141672352644       -1.9487811654599199       -5.2794557071196468                0           0           0
          50           1   1.0095200000000000       -2.5307153689830759       -1.2200193824098884       -4.8851858763526632                0           0           0
          51           1   1.4893410000000000       -2.1349331662684796       -2.1876635370962489       -5.5807899824709191                0           0           0
          52           1   1.2179240000000000       -1.3396991303227734       -1.3156820723853420       -4.7730369808312414                0           0           0
          53           1   1.0644769999999999      -0.21655771439627713       -1.6500109173754804       -5.2221744428020580                0           0           0
          54           1   1.3780330000000001       0.96867177846635677       -1.2763665480339359       -5.0285841227736698                0           0           0
          55           1   1.0451729999999999        2.1526605245398072       -1.4307946894685468       -4.8241908571658341                0           0           0
          56           1  0.79520100000000005        3.6397679186595884       -1.3717436860479362       -5.2556324502521736                0           0           0
          57           1   1.0204660000000001        4.4144295856615372       -1.5934743199486920       -4.6049917249448793                0           0           0
          58           1  0.80856499999999998        5.3251756010524840       -1.3851728371791383       -5.0104812142242316                0           0           0
          59           1   1.3538969999999999       -5.0646086623680846       -1.0793859143987801       -4.9901425795817067                0           0           0
          60           1  0.75854699999999997       -4.0666445329082190      -0.68008773992252269       -5.1867545333522509                0           0           0
          61           1  0.73175199999999996       -2.4362978017139705      -0.42890017702046990       -5.3687820384991376                0           0           0
          62           1   1.0328729999999999       -3.2283469665423770      -0.31886763201559543       -4.8637145120343224                0           0           0
          63           1  0.75083299999999997       -1.6080602998588098      -0.29477360044814649       -5.2699487662977420                0           0           0
          64           1  0.82179500000000005       -1.8911795158910629       -1.0738145366141767       -5.6613934097580358                0           0           0
          65           1  0.90665300000000004      -1.05768147925493494E-002 -0.65387542886422345       -4.8689211236832950                0           0           0
          66           1  0.88653700000000002      -0.93780724149207817      -0.30019298395753768       -4.6194300816674287                0           0           0
          67           1   1.1960150000000001       0.61272890942043468      -5.76956259764322965E-002  -5.5102013827667564                0           0           0
          68           1   1.0855290000000000        1.7597632597944290      -0.25924269184575088       -4.9772015809384067                0           0           0
          69           1  0.97821599999999997        2.8726404945421322      -0.73612143198049385       -5.2594985284214166                0           0           0
          70           1   1.4363210000000000        3.8766629815220419      -0.46581803566200541       -4.6881833851605412                0           0           0
          71           1   1.1656560000000000        5.2164782966714327      -0.35937453734616387       -4.9113068760712171                0           0           0
          72           1   1.0241950000000000       -5.1392572870058153       5.86455051194274546E-002  -5.4445864739512606                0           0           0
          73           1  0.83424600000000004       -4.6088926879642012       0.76778614977906834       -4.9664892357665371                0           0           0
          74           1   1.2242780000000000       -5.7173908792549160       0.90365551354574247       -4.8401254958661095                0           0           0
          75           1   1.2615920000000000       -3.9367948573642533       0.26549789434136084       -5.6906393751872768                0           0           0
          76           1  0.96946900000000003       -2.7355907067967786       0.42711169504558111       -5.5140775127701618                0           0           0
          77           1   1.0105480000000000       -3.3834772659429304       0.85985736531064738       -4.7530246095010202                0           0           0
          78           1   1.1696240000000000       -1.6375709214177085       0.71730931786034713       -5.3760805886383451                0           0           0
          79           1  0.91265600000000002       -2.3019146681192320        1.0199129295027598       -4.5853112421672417                0           0           0
          80           1  0.77751099999999995      -0.66460921171255727       0.45633339746434487       -5.3565635585934759                0           0           0
          81           1  0.88239800000000002       0.43117981883287548        1.0316423273491671       -5.3360131495805776                0           0           0
          82           1  0.79924200000000001        1.0759525061359678       0.44189128994653881       -4.6735515124721312                0           0           0
          83           1   1.1011640000000000        1.4522649389559614       0.81832075208270716       -5.6078734125927090                0           0           0
          84           1   1.4763390000000001        2.1766567527263065       0.88652541578676569       -4.5393870809179306                0           0           0
          85           1  0.85063500000000003        2.9564188364424666       0.18643194426684939       -4.8875290159577762                0           0           0
          86           1  0.83979999999999999        3.6390058123681364       0.21403047321029511       -5.5446686164762298                0           0           0
          87           1   1.1119710000000000        4.4782389797539608       0.66406051792104126       -5.0036401697829955                0           0           0
          88           1  0.92940100000000003       -5.4532106553017226        1.9615649901712660       -5.0992684069295855                0           0           0
          89           1  0.98624599999999996       -4.6139649958442392        2.3583215334870893       -5.6282246697633704                0           0           0
          90           1  0.88377099999999997       -3.8547642559075106        1.4276757953619379       -5.5099792132085756                0           0           0
          91           1   1.4289920000000000       -4.4177131227890083        1.7671983065739889       -4.5660127415659701                0           0           0
          92           1   1.2863240000000000       -2.6685086687796269        1.6210663461047830       -5.4931845146513139                0           0           0
          93           1  0.83280200000000004       -3.2642074197611439        1.8638152395723413       -4.5943689149767568                0           0           0
          94           1  0.91532000000000002       -1.5861800507468242        1.8536123947873877       -5.2106382357341072                0           0           0
          95           1   1.0549850000000001      -0.61800217682665082        1.4270032103545995       -5.3314238322613852                0           0           0
          96           1   1.4844250000000001       0.40752587666703377        2.1830652307611143       -5.4330681129791918                0           0           0
          97           1  0.86414400000000002        1.4786052305644715        1.8075095230391183       -5.3053830696537698                0           0           0
          98           1   1.3125690000000001        2.4437709441552116        2.2779915715867194       -5.1463333830464348                0           0           0
          99           1  0.82318199999999997        2.3790382201390816        1.2576506616406160       -5.6269711328973777                0           0           0
         100           1   1.2526790000000001        3.3994124820225018        1.2352980925811847       -5.3642725342330229                0           0           0
         101           1   1.3715560000000000        4.6951855841001695        1.9459728247774262       -5.2169422152344866                0           0           0
         102           1   1.1018300000000001       -5.2691239597646833        2.9254183336206623       -4.6600126148150309                0           0           0
         103           1   1.0932630000000001       -3.5653931155531615        2.4646364990416352       -5.3467128466513625                0           0           0
         104           1  0.91189900000000002       -4.1188970534415903        2.8867289240332941       -4.5159286882862260                0           0           0
         105           1  0.73728300000000002       -2.6087972141644808        2.6434846854884881       -5.2630562795272056                0           0           0
         106           1  0.79696199999999995       -3.3079154947994911        3.4071486497121342       -5.2553569609763375                0           0           0
         107           1   1.2884510000000000       -1.6722932682439735        2.9546001550520185       -4.9513682118198350                0           0           0
         108           1  0.90628100000000000      -0.72545686408018106        2.3943894994867065       -4.7428203616168672                0           0           0
         109           1   1.2439519999999999      -0.38096707206987901        3.3555368923128448       -5.1864303074467131                0           0           0
         110           1  0.85372000000000003      -0.79161043053583136        2.4288076565743246       -5.7177854578406393                0           0           0
         111           1  0.79320299999999999       0.61145037014084114        3.2926116980046913       -5.5568092018363826                0           0           0
         112           1  0.83657099999999995        1.1782938974095858        2.4639152776870734       -4.6486543152689572                0           0           0
         113           1  0.79898800000000003        2.9594030532837188        3.1885420151677764       -4.7812539588081258                0           0           0
         114           1  0.97961900000000002        3.5968863421541091        2.3810251962503326       -4.7887861517577708                0           0           0
         115           1  0.80490099999999998        4.3404099184752027        2.9636821551847969       -5.0324503877945865                0           0           0
         116           1  0.76785300000000001        5.2769855279506341        2.8461171048022429       -5.1966855403205923                0           0           0
         117           1  0.78729899999999997       -4.9486946613654803        4.4950977605908680       -5.4857123176098357                0           0           0
         118           1  0.86933700000000003       -5.5464959719594482        3.5939603655814931       -5.4427240925679792                0           0           0
         119           1   1.4795579999999999       -4.3730851984085009        3.5627149965598903       -5.4201347715023438                0           0           0
         120           1   1.1486650000000000       -3.1690671350352058        4.3848169447639940       -5.0919304107927807                0           0           0
         121           1  0.75789499999999999       -2.3797475737734088        3.7442634400075132       -4.9427804884430602                0           0           0
         122           1  0.80026200000000003       -2.3021436722289277        4.4598162966561841       -5.6295161071307414                0           0           0
         123           1  0.84546600000000005       -1.5159935250459782        3.9647909267572565       -5.5351237284731436                0           0           0
         124           1  0.74727200000000005       -1.2013629724358132        3.8588711492521348       -4.6730898718346303                0           0           0
         125           1   1.1842509999999999       -1.9041781683506462        4.6054704021753707       -4.6964938226150696                0           0           0
         126           1   1.0372950000000001      -0.63963033555464399        4.5073109587970244       -5.4063874030034285                0           0           0
         127           1  0.75573400000000002       0.28003493138557101        4.1616381585929751       -5.1105139838647666                0           0           0
         128           1  0.90554000000000001        1.2348177113017273        4.0976294642621944       -5.5670341060502535                0           0           0
         129           1  0.73019400000000001        1.8169961379368447        4.2080504265355607       -4.6954671561575569                0           0           0
         130           1   1.1501790000000001        2.1530341081422302        3.5465997402295830       -5.3260629945858060                0           0           0
         131           1   1.0361840000000000        3.0253953171965122        4.2515971196636553       -5.0703670813331385                0           0           0
         132           1  0.78415599999999996        3.9323094865679185        3.9129147835112832       -5.1463943434315933                0           0           0
         133           1  0.84128000000000003        4.6869209212039991        4.1856166630501477       -4.6272525952151611                0           0           0
         134           1   1.3047489999999999        4.8121063285576895        3.6912053247478660       -5.6322138183977009                0           0           0
         135           1  0.87163800000000002       -5.3582868594179169        5.3250560641428883       -5.1993835529105255                0           0           0
         136           1   1.1479109999999999       -4.3557215969182330        4.7483412115830266       -4.6950736837440612                0           0           0
         137           1  0.85967499999999997       -3.6017289625004762        5.3495632270370201       -5.0974390156771365                0           0           0
         138           1  0.80051799999999995       -4.4832001039494243        5.3883917507600074       -5.5101159467513048                0           0           0
         139           1   1.1004989999999999       -2.5843447231087815        5.4421277992266273       -5.4190885441831238                0           0           0
         140           1  0.95438500000000004       -1.5399590424520468        5.6739454544555539       -5.1850751292946153                0           0           0
         141           1  0.98720399999999997      -0.37742073429395440        5.6263825901417306       -5.5802138965350796                0           0           0
         142           1  0.86126300000000000       0.23853800592360308        5.0285047794503690       -4.8299157862535775                0           0           0
         143           1  0.79245800000000000        1.0953932480969293        4.6924619460168451       -4.7641128342848322                0           0           0
         144           1   1.2686580000000001        1.9902560244254932        4.9517366992470837       -5.3145624870805834                0           0           0
         145           1  0.86478800000000000        2.9194459188572992        5.2752134266141635       -4.8539786514088821                0           0           0
         146           1  0.73688299999999995        3.1458665316142422        5.0137417621377498       -5.6931925361344318                0           0           0
         147           1   1.4304490000000001        3.9920269996971935        4.9965464536180058       -4.9135257943243014                0           0           0
         148           1  0.76117100000000004        5.1033916352582658        5.0288064293953756       -5.0214822316435130                0           0           0
         149           1  0.81904200000000005        4.6159957670000757        4.8811664423274941        5.6748914928551830                0           0           0
         150           1  0.74355499999999997       -5.1706634042645243       -5.2333684659763033       -3.7932063429895635                0           0           0
         151           1  0.76271500000000003       -3.8938710299428343       -5.0031652898962955       -3.9571584702816129                0           0           0
         152           1  0.76898400000000000       -2.4450358682727540       -4.7729306416880295       -4.0569286087328926                0           0           0
         153           1   1.0236600000000000       -3.1876259877834374       -5.5569643517566876       -3.5145693296478240                0           0           0
         154           1  0.73077700000000001       -1.4876389106484886       -4.9063723341023149       -3.7581230231322111                0           0           0
         155           1   1.1202880000000000       -2.0081183989435138       -5.6654371874767850       -4.1816476186761955                0           0           0
         156           1  0.76807899999999996       -1.1626519812480973       -5.1592349154336583       -4.4899242690721168                0           0           0
         157           1   1.3321630000000000      -0.46409687664642796       -4.9646360152877325       -3.6785045641561247                0           0           0
         158           1  0.80179999999999996       0.68508209766638295       -4.9343768947374231       -3.9279600874574840                0           0           0
         159           1  0.94373200000000002        1.6401924136247601       -5.0530554347442109       -4.0174072604946014                0           0           0
         160           1  0.95481799999999994        3.1847552804425181       -4.6676621398398881       -4.5047759868811745                0           0           0
         161           1   1.4699640000000000        2.7810305141466465       -5.6374674248527432       -3.8515996099870495                0           0           0
         162           1   1.3309860000000000        4.2574481967443543       -5.0866872314324940       -4.0911371453759910                0           0           0
         163           1   1.1672389999999999        5.5732189857073759       -5.5098524071842041       -4.4610158151400574                0           0           0
         164           1  0.96901499999999996       -5.4403596176480526       -4.4041478462172350       -4.4214677031736231                0           0           0
         165           1   1.1382319999999999       -4.6425825519275596       -4.3894772428469073       -3.6092269477925147                0           0           0
         166           1   1.0295930000000000       -5.6919973080053614       -3.7204290777284785       -3.5812626818856566                0           0           0
         167           1  0.75638000000000005       -4.0879349420911888       -3.5669927082564943       -3.8310603552425513                0           0           0
         168           1   1.4976440000000000       -3.2435213879604361       -4.2024284962008398       -3.6128837369768094                0           0           0
         169           1   1.3677140000000001       -1.7338275736215323       -4.0030942007270642       -4.2368345736074335                0           0           0
         170           1  0.87362600000000001      -0.73839526258802035       -3.9524784110117079       -4.7274733393770818                0           0           0
         171           1  0.77448300000000003      -0.47899555522503423       -3.9220532087220823       -3.6416173446033815                0           0           0
         172           1   1.1426689999999999       0.20947243751670452       -4.1827330940805751       -4.4286646801348493                0           0           0
         173           1   1.6053649999999999        1.3832049186891728       -3.8419469781200766       -3.7716550798753126                0           0           0
         174           1  0.81254700000000002        2.3940011727527342       -4.4023397089018541       -4.0138017017157175                0           0           0
         175           1   1.5251770000000000        2.8597201546168076       -3.4413949979245722       -4.4844547519936127                0           0           0
         176           1  0.90739599999999998        3.9023008992032082       -3.9231403557022704       -4.1814740088088218                0           0           0
         177           1  0.91723800000000000        3.4730483497370432       -3.2925206511252747       -3.4570734819692266                0           0           0
         178           1  0.98055700000000001        4.9387535860805585       -4.1286022990709306       -4.2325642381708946                0           0           0
         179           1   1.4378010000000001       -4.9163037271179766       -3.2688519095330024       -4.4125715080863577                0           0           0