LAMMPS data file via write_data, version 17 Nov 2016, timestep = 0
      
  1500 atoms
      
1 atom types
  -5.7235712129999996        5.7235712129999996      xlo xhi
  -5.7235712129999996        5.7235712129999996      ylo yhi
  -5.7235712129999996        5.7235712129999996      zlo zhi
Masses
      
1 1
      
Pair Coeffs # lj/poly
      
                               1 1.0 1.0 2.025 1.25 0.2
      
Atoms # charge
      
           1           1  0.82965299999999997       -5.5506577200744793       -4.8784060279422903       -5.2665875595648917                0           0           0
           2           1   1.5413479999999999       -4.5831360846452673       -5.2671671442739889       -4.7580202979978008                0           0           0
           3           1  0.86062700000000003       -3.8079893784745367       -4.7606373819358785       -5.4918921637109470                0           0           0
           4           1   1.2325940000000000       -3.1799565030472379       -5.2242807694843618       -4.6631977085325822                0           0           0
           5           1  0.92110899999999996       -2.0888492279461515       -4.8885843485534712       -4.8995269641765864                0           0           0
           6           1   1.5043869999999999       -1.0438325237628820       -4.7159310544884203       -5.4652389377145312                0           0           0
           7           1  0.88103100000000001      -0.20792407055943407       -5.1781827071966768       -4.7498821354797860                0           0           0
           8           1  0.92227999999999999       0.29157167432527054       -4.6644216479338647       -5.4656725384159710                0           0           0
           9           1   1.5129459999999999       0.93462469008469817       -5.5180666276688877       -4.9727098594852590                0           0           0
          10           1  0.87097899999999995        2.1162772219310257       -5.5719710260889634       -4.7660191037776825                0           0           0
          11           1  0.82823300000000000        1.9362537678830183       -5.3899295675894008       -5.6914643144179884                0           0           0
          12           1   1.3333429999999999        3.0333705618423235       -5.3197590818627241       -5.5233751913648375                0           0           0
          13           1  0.81986499999999995        4.1231347714297861       -5.3035177321156004       -5.3206411268699076                0           0           0
          14           1  0.74748000000000003        3.5248201839391040       -5.5406578972476499       -4.6388194403903054                0           0           0
          15           1  0.86770400000000003        4.9133139164472670       -4.8152840171866282       -4.9821081933500846                0           0           0
          16           1  0.73948999999999998        4.6885485115134760       -5.6939519631631459       -4.7965157727640007                0           0           0
          17           1   1.1174949999999999       -4.8122090403894298       -4.1463152357983386       -5.5295552419390734                0           0           0
          18           1   1.0167780000000000       -4.0304454832245673       -4.1264419067969298       -4.6493372422684995                0           0           0
          19           1   1.0699300000000000       -2.8765139389079533       -4.0561071165718650       -4.8563863067030866                0           0           0
          20           1  0.76943799999999996       -1.9767538730367384       -4.0750298475067712       -5.3007864681985151                0           0           0
          21           1   1.0829869999999999      -0.23739980978307162       -3.7547903686883828       -5.6624933502864963                0           0           0
          22           1   1.3859269999999999       0.97910253783874257       -3.6849214401556374       -5.3581122041670453                0           0           0
          23           1  0.77240699999999995        1.0810276114554149       -4.4965616051904824       -4.6486824288523909                0           0           0
          24           1   1.1917739999999999        2.0211890098911347       -4.5356624843269824       -4.9979400762789457                0           0           0
          25           1  0.76583000000000001        1.8132582280619642       -3.5345939542601190       -4.7340111538624843                0           0           0
          26           1  0.97774899999999998        2.1634529095871784       -3.5645510263428570       -5.6219855092284794                0           0           0
          27           1  0.83108000000000004        2.9261196364981092       -4.1993655259316904       -5.3763612162524286                0           0           0
          28           1   1.2215430000000000        3.9772507018962937       -4.2722393910719649       -5.2368385863257823                0           0           0
          29           1   1.3806490000000000        5.3882570237444298       -3.8307086801135517       -5.3286802851504520                0           0           0
          30           1   1.0400879999999999       -5.1882843467939734       -2.9529382296207283       -5.6238757963670460                0           0           0
          31           1  0.77126099999999997       -4.3021520756290865       -3.2800986327613098       -5.2695167840948169                0           0           0
          32           1  0.92384800000000000       -4.3026252649332921       -2.3768115519858450       -4.9385352310822839                0           0           0
          33           1  0.88862900000000000       -2.3306597233803772       -3.1308304751103844       -4.8744773056607880                0           0           0
          34           1  0.86158199999999996       -3.0725489843521943       -2.8336350603678433       -5.5418660238256541                0           0           0
          35           1   1.1209890000000000       -1.3107279955407103       -3.3534562027644470       -5.2639702945241300                0           0           0
          36           1   1.2420370000000001      -0.20102305121952924       -2.9240606711863868       -4.7219016725577534                0           0           0
          37           1  0.88274100000000000       -1.0381510206732978       -2.3269180689481703       -5.1692062695501599                0           0           0
          38           1   1.0668899999999999       0.70645036358543045       -2.4479723315975468       -5.4177925081076381                0           0           0
          39           1   1.1892499999999999        1.8809243221388252       -2.5772211521465271       -5.0916201334011255                0           0           0
          40           1  0.78319600000000000        2.8375245487895118       -2.8147320961406859       -5.3712115832631149                0           0           0
          41           1  0.77194799999999997        2.7301677114896847       -2.2985611386055651       -4.5341137786153372                0           0           0
          42           1  0.74873199999999995        3.6628191980831648       -3.2994462508780305       -5.1968784584731900                0           0           0
          43           1   1.0263439999999999        4.5019282591648579       -3.2462811701707377       -4.7646317536835454                0           0           0
          44           1  0.81308199999999997        4.5400243149378703       -2.5161950479915962       -5.4320216536754495                0           0           0
          45           1   1.1161060000000000        3.6580082017480695       -2.3512046602023933       -4.9590298553139078                0           0           0
          46           1   1.2125560000000000        5.4131334796645909       -2.4142456956900746       -4.8922118965766446                0           0           0
          47           1  0.74192100000000005       -5.0835282269441802       -2.0680395433307535       -5.2746783191216764                0           0           0
          48           1  0.91800800000000005       -4.1368930038267155       -1.5460953159734077       -5.5032947762897697                0           0           0
          49           1  0.83222700000000005       -3.2250648976183713       -1.9465863147804168       -5.2763405900716212                0           0           0
          50           1   1.0095200000000000       -2.5252620920463769       -1.2201696552398946       -4.8897383674697572                0           0           0
          51           1   1.4893410000000000       -2.1322989456945423       -2.1917093840194468       -5.5809378045628497                0           0           0
          52           1   1.2179240000000000       -1.3372061562126047       -1.3180508008761187       -4.7732872033057516                0           0           0
          53           1   1.0644769999999999      -0.21388912448959729       -1.6532380566533869       -5.2197060338644610                0           0           0
          54           1   1.3780330000000001       0.97341453574952919       -1.2738228281505215       -5.0303155415310652                0           0           0
          55           1   1.0451729999999999        2.1565250805389002       -1.4300267653365397       -4.8208190420680586                0           0           0
          56           1  0.79520100000000005        3.6438631693725121       -1.3644471888353777       -5.2508423504531141                0           0           0
          57           1   1.0204660000000001        4.4600336753290080       -1.5590621981627022       -4.6111991241588086                0           0           0
          58           1  0.80856499999999998        5.3554973055092603       -1.3689906056994161       -5.0350453280245429                0           0           0
          59           1   1.3538969999999999       -5.0445653910586543       -1.0688044583450784       -4.9838435953837132                0           0           0
          60           1  0.75854699999999997       -4.0574013159759170      -0.67256743063319302       -5.1870856105860277                0           0           0
          61           1  0.73175199999999996       -2.4314992014637173      -0.42825877384021105       -5.3708419183724150                0           0           0
          62           1   1.0328729999999999       -3.2218664514519384      -0.31734753437104501       -4.8629017392882439                0           0           0
          63           1  0.75083299999999997       -1.6040204898723625      -0.29482380693474131       -5.2723713294395012                0           0           0
          64           1  0.82179500000000005       -1.8857869516161800       -1.0754139303759178       -5.6640424927302435                0           0           0
          65           1  0.90665300000000004      -7.94390783032294934E-003 -0.65553549455595039       -4.8691485002967623                0           0           0
          66           1  0.88653700000000002      -0.93511496853044029      -0.30003452199515745       -4.6204623051068543                0           0           0
          67           1   1.1960150000000001       0.61486668503024688      -5.80813667216153462E-002  -5.5101041153342694                0           0           0
          68           1   1.0855290000000000        1.7635311917095340      -0.25745817133576310       -4.9773332030237043                0           0           0
          69           1  0.97821599999999997        2.8745871682056379      -0.73514267767262531       -5.2568618850437741                0           0           0
          70           1   1.4363210000000000        3.8768293584630769      -0.46156601134769737       -4.6852756022695710                0           0           0
          71           1   1.1656560000000000        5.2205970003284090      -0.35443867348607494       -4.9026875599423878                0           0           0
          72           1   1.0241950000000000       -5.1424454428374728       6.00695742299022228E-002  -5.4471290228301328                0           0           0
          73           1  0.83424600000000004       -4.6104467890608714       0.76716425977706226       -4.9663536425508150                0           0           0
          74           1   1.2242780000000000       -5.7163644217493310       0.90477715089024979       -4.8377428458393892                0           0           0
          75           1   1.2615920000000000       -3.9351685127893594       0.26758169180962099       -5.6897408450157370                0           0           0
          76           1  0.96946900000000003       -2.7334058104879286       0.42704977754986828       -5.5157693842728532                0           0           0
          77           1   1.0105480000000000       -3.3786653428955704       0.86137525921600044       -4.7531387366038791                0           0           0
          78           1   1.1696240000000000       -1.6359426738395975       0.71735231801537402       -5.3785008707138378                0           0           0
          79           1  0.91265600000000002       -2.2954957349068219        1.0252457092213998       -4.5853446355451730                0           0           0
          80           1  0.77751099999999995      -0.66387268188518167       0.45419178359262080       -5.3566565666409360                0           0           0
          81           1  0.88239800000000002       0.43400302208355690        1.0323206113849634       -5.3362241093494900                0           0           0
          82           1  0.79924200000000001        1.0783384266724374       0.44282196331022572       -4.6738074582676825                0           0           0
          83           1   1.1011640000000000        1.4550080842702418       0.81730840015585571       -5.6072777143508166                0           0           0
          84           1   1.4763390000000001        2.1781205546930771       0.88751532091462249       -4.5376697487588347                0           0           0
          85           1  0.85063500000000003        2.9591069208165717       0.18965497647044316       -4.8883498562657266                0           0           0
          86           1  0.83979999999999999        3.6452716094022346       0.21121470295903766       -5.5446375346592482                0           0           0
          87           1   1.1119710000000000        4.4801936582365975       0.66590888148649530       -5.0014356037291012                0           0           0
          88           1  0.92940100000000003       -5.4558606948223574        1.9615191472004927       -5.1013170175308939                0           0           0
          89           1  0.98624599999999996       -4.6154100315542435        2.3594727878388593       -5.6280906471025585                0           0           0
          90           1  0.88377099999999997       -3.8545165365512135        1.4261991970422434       -5.5101434121680484                0           0           0
          91           1   1.4289920000000000       -4.4179315310943297        1.7678067298952174       -4.5671269674280861                0           0           0
          92           1   1.2863240000000000       -2.6670882908573321        1.6212254698964479       -5.4939217730802401                0           0           0
          93           1  0.83280200000000004       -3.2621261625420570        1.8645032487564812       -4.5941990180219925                0           0           0
          94           1  0.91532000000000002       -1.5843083263191522        1.8536505612633070       -5.2101793622679899                0           0           0
          95           1   1.0549850000000001      -0.61662439197484797        1.4257473943110002       -5.3312709106619049                0           0           0
          96           1   1.4844250000000001       0.40762685250789676        2.1842779733638746       -5.4319466896021833                0           0           0
          97           1  0.86414400000000002        1.4787508745094708        1.8075306108072500       -5.3058982018749035                0           0           0
          98           1   1.3125690000000001        2.4440712112733163        2.2784359238703775       -5.1458722857565267                0           0           0
          99           1  0.82318199999999997        2.3809141760315971        1.2565111589107483       -5.6254489664318301                0           0           0
         100           1   1.2526790000000001        3.4008407719147833        1.2326935684028584       -5.3626162258932935                0           0           0
         101           1   1.3715560000000000        4.6945629467386691        1.9469402265324796       -5.2169182959772060                0           0           0
         102           1   1.1018300000000001       -5.2689871262531263        2.9243977246823825       -4.6597062338333197                0           0           0
         103           1   1.0932630000000001       -3.5661011768217907        2.4628822581092660       -5.3471114746877619                0           0           0
         104           1  0.91189900000000002       -4.1186448999866334        2.8871975700448012       -4.5170042598158133                0           0           0
         105           1  0.73728300000000002       -2.6088870983209160        2.6431910160092400       -5.2631939232632154                0           0           0
         106           1  0.79696199999999995       -3.3106449190494152        3.4050336383233049       -5.2565354637795512                0           0           0
         107           1   1.2884510000000000       -1.6718013905934770        2.9552994433104889       -4.9509914003444271                0           0           0
         108           1  0.90628100000000000      -0.72435409461006817        2.3948744292662223       -4.7431515832233826                0           0           0
         109           1   1.2439519999999999      -0.38209304505591657        3.3548616911925535       -5.1895676106925972                0           0           0
         110           1  0.85372000000000003      -0.79111355413420181        2.4277574219325810       -5.7179892511677020                0           0           0
         111           1  0.79320299999999999       0.61096042306005938        3.2937662559174932       -5.5588741586611548                0           0           0
         112           1  0.83657099999999995        1.1792528089856900        2.4637366464842856       -4.6477567799371595                0           0           0
         113           1  0.79898800000000003        2.9591165048981498        3.1904075848169029       -4.7808687588233569                0           0           0
         114           1  0.97961900000000002        3.5968947921088414        2.3824958300551877       -4.7877189123003552                0           0           0
         115           1  0.80490099999999998        4.3407414951671921        2.9648365930228771       -5.0312376362978117                0           0           0
         116           1  0.76785300000000001        5.2778919373524733        2.8465922968961213       -5.1963392684993135                0           0           0
         117           1  0.78729899999999997       -4.9503607626973434        4.4992350591346426       -5.4844988060927893                0           0           0
         118           1  0.86933700000000003       -5.5479859847862363        3.5922843038056786       -5.4423776860881752                0           0           0
         119           1   1.4795579999999999       -4.3751051085789090        3.5642749338426256       -5.4203005657677998                0           0           0
         120           1   1.1486650000000000       -3.1688845290423782        4.3817576823079616       -5.0943989260893092                0           0           0
         121           1  0.75789499999999999       -2.3800592393680096        3.7425186779496542       -4.9435067789923206                0           0           0
         122           1  0.80026200000000003       -2.3025526770758984        4.4606444422399321       -5.6355193077272192                0           0           0
         123           1  0.84546600000000005       -1.5164913317834996        3.9654109714885895       -5.5379198616957792                0           0           0
         124           1  0.74727200000000005       -1.1987715297121939        3.8613661357241220       -4.6757479637757307                0           0           0
         125           1   1.1842509999999999       -1.9055794887397104        4.6042676780014151       -4.7025449726796786                0           0           0
         126           1   1.0372950000000001      -0.63889767625330496        4.5063789519786308       -5.4103623598197776                0           0           0
         127           1  0.75573400000000002       0.28424896287108670        4.1529015135888532       -5.1205090308870709                0           0           0
         128           1  0.90554000000000001        1.2310963586386849        4.0975036432005041       -5.5692899285192539                0           0           0
         129           1  0.73019400000000001        1.8166137594343974        4.2094404202831637       -4.6888058944420958                0           0           0
         130           1   1.1501790000000001        2.1506490569475334        3.5479461696926524       -5.3237659727077569                0           0           0
         131           1   1.0361840000000000        3.0257507080019099        4.2491276225266414       -5.0716124637506308                0           0           0
         132           1  0.78415599999999996        3.9327990093686598        3.9121651166712006       -5.1473555586773001                0           0           0
         133           1  0.84128000000000003        4.6864294780667528        4.1858289739910770       -4.6289441682736712                0           0           0
         134           1   1.3047489999999999        4.8116722244243899        3.6904344106156870       -5.6339651360706373                0           0           0
         135           1  0.87163800000000002       -5.3664394466403014        5.3296898652576914       -5.1949151783741474                0           0           0
         136           1   1.1479109999999999       -4.3583320473602907        4.7500187602169621       -4.6935934004228574                0           0           0
         137           1  0.85967499999999997       -3.6033645929193265        5.3416421063577122       -5.1009818131218978                0           0           0
         138           1  0.80051799999999995       -4.4900507301456827        5.3877018098169689       -5.5083297998827803                0           0           0
         139           1   1.1004989999999999       -2.5842405300924889        5.4419422748625355       -5.4196764101204575                0           0           0
         140           1  0.95438500000000004       -1.5398809902791957        5.6932415630001429       -5.1941118494356093                0           0           0
         141           1  0.98720399999999997      -0.38481052544857697        5.6335090352444688       -5.5809693539070446                0           0           0
         142           1  0.86126300000000000       0.23323159474948163        5.0113624938017072       -4.8280049640677989                0           0           0
         143           1  0.79245800000000000        1.0943424034967828        4.6903350592505504       -4.7680204318269821                0           0           0
         144           1   1.2686580000000001        1.9893571189038983        4.9477541408678025       -5.3148513223047784                0           0           0
         145           1  0.86478800000000000        2.9177223198708866        5.2715967744555829       -4.8555267927231380                0           0           0
         146           1  0.73688299999999995        3.1408605518814294        5.0123171968231954       -5.6956862209762127                0           0           0
         147           1   1.4304490000000001        3.9909450324097691        4.9960531588817307       -4.9147423082040973                0           0           0
         148           1  0.76117100000000004        5.1010828665523498        5.0312155739828839       -5.0209069675231746                0           0           0
         149           1  0.81904200000000005        4.6141672606790163        4.8793439508192940        5.6739697370725271                0           0           0
         150           1  0.74355499999999997       -5.1769012024575405       -5.2308679254466099       -3.7842797544756883                0           0           0
         151           1  0.76271500000000003       -3.9023811236097128       -5.0041637720919248       -3.9598320777549221                0           0           0
         152           1  0.76898400000000000       -2.4836921203645148       -4.8007777668401630       -4.0468044467059849                0           0           0
         153           1   1.0236600000000000       -3.1874238415515235       -5.5470881636594536       -3.5185294834332113                0           0           0
         154           1  0.73077700000000001       -1.4892041706622683       -4.8773518390835813       -3.7886065054969986                0           0           0
         155           1   1.1202880000000000       -2.0099549972290722       -5.6679340746231626       -4.1903586853566113                0           0           0
         156           1  0.76807899999999996       -1.1615002135774430       -5.1772601942560286       -4.4996590706865724                0           0           0
         157           1   1.3321630000000000      -0.45128617462207732       -4.9768929214751152       -3.6661995046163218                0           0           0
         158           1  0.80179999999999996       0.65097340521731084       -4.9212744182725228       -3.9470384054021075                0           0           0
         159           1  0.94373200000000002        1.6105981488764103       -5.0576239216509791       -4.0291547190285320                0           0           0
         160           1  0.95481799999999994        3.1732999336471597       -4.6754647197072696       -4.5034950411187538                0           0           0
         161           1   1.4699640000000000        2.7741048576064635       -5.6452909772802231       -3.8538350099736558                0           0           0
         162           1   1.3309860000000000        4.2488140194349295       -5.0888633931928169       -4.0867185391073155                0           0           0
         163           1   1.1672389999999999        5.5653055811974088       -5.4976451162671465       -4.4564715443131142                0           0           0
         164           1  0.96901499999999996       -5.4399436676860340       -4.3949500659982652       -4.4246279888979299                0           0           0
         165           1   1.1382319999999999       -4.6491163650735059       -4.3832626740667742       -3.6098225813338685                0           0           0
         166           1   1.0295930000000000       -5.6946443989789186       -3.7157700611725359       -3.5826004022032412                0           0           0
         167           1  0.75638000000000005       -4.1062889319174101       -3.5470948875357760       -3.8381281354309653                0           0           0
         168           1   1.4976440000000000       -3.2681843956227628       -4.1934584933890147       -3.6215176925585491                0           0           0
         169           1   1.3677140000000001       -1.8483271591862480       -3.9684097529654334       -4.1985223011774178                0           0           0
         170           1  0.87362600000000001      -0.84680828457547541       -4.2982945033267228       -4.4454838240571117                0           0           0
         171           1  0.77448300000000003      -0.48937616345022850       -3.9078588534183307       -3.6637776060923386                0           0           0
         172           1   1.1426689999999999       0.17272610891652462       -4.1513440072969621       -4.4599465575412864                0           0           0
         173           1   1.6053649999999999        1.3714890968786726       -3.8454464724536614       -3.7899807854240199                0           0           0
         174           1  0.81254700000000002        2.3807474961455952       -4.4082463548594095       -4.0200784867177664                0           0           0
         175           1   1.5251770000000000        2.8652441874862262       -3.4514670035648796       -4.4886633945917849                0           0           0
         176           1  0.90739599999999998        3.8961247461987334       -3.9424679512830103       -4.1684339510086428                0           0           0
         177           1  0.91723800000000000        3.4654201138082588       -3.3063410638385364       -3.4529607232155648                0           0           0
         178           1  0.98055700000000001        4.9383411541311357       -4.1406122844449254       -4.2266710391127766                0           0           0
         179           1   1.4378010000000001       -4.9410044468184617       -3.2459423241095156       -4.4127915556467263                0           0           0