LAMMPS data file via write_data, version 17 Nov 2016, timestep = 0
      
  1500 atoms
      
1 atom types
  -5.7235712129999996        5.7235712129999996      xlo xhi
  -5.7235712129999996        5.7235712129999996      ylo yhi
  -5.7235712129999996        5.7235712129999996      zlo zhi
Masses
      
1 1
      
Pair Coeffs # lj/poly
      
                               1 1.0 1.0 2.025 1.25 0.2
      
Atoms # charge
      
           1           1  0.82965299999999997       -5.5487017200532618       -4.8787178303518726       -5.2648855377693469                0           0           0
           2           1   1.5413479999999999       -4.5857705906699238       -5.2695979366282177       -4.7554066551955581                0           0           0
           3           1  0.86062700000000003       -3.8135222486302229       -4.7640389738298676       -5.4956381420983398                0           0           0
           4           1   1.2325940000000000       -3.1876703425063413       -5.2239511852959071       -4.6674178405496711                0           0           0
           5           1  0.92110899999999996       -2.0924266187696525       -4.8944253643565663       -4.8980821690209231                0           0           0
           6           1   1.5043869999999999       -1.0393172193996891       -4.7231717410532328       -5.4639493007973474                0           0           0
           7           1  0.88103100000000001      -0.19694290105783541       -5.1605787407084698       -4.7446964615648497                0           0           0
           8           1  0.92227999999999999       0.30107028825361759       -4.6621611420546341       -5.4695513603679009                0           0           0
           9           1   1.5129459999999999       0.94102145424619721       -5.5159200457680457       -4.9778266154744069                0           0           0
          10           1  0.87097899999999995        2.1209651561246270       -5.5718307861826482       -4.7701445874672670                0           0           0
          11           1  0.82823300000000000        1.9420426212874009       -5.3885651775149004       -5.6940266380707589                0           0           0
          12           1   1.3333429999999999        3.0404820062821685       -5.3155900472770332       -5.5250093010393098                0           0           0
          13           1  0.81986499999999995        4.1294740191515356       -5.2983118012833614       -5.3220587770885590                0           0           0
          14           1  0.74748000000000003        3.5295700075614480       -5.5408835504956890       -4.6413158526405809                0           0           0
          15           1  0.86770400000000003        4.9225482347586329       -4.8161837240169065       -4.9788468973373838                0           0           0
          16           1  0.73948999999999998        4.6890225344149954       -5.6956192516235600       -4.7976857735827663                0           0           0
          17           1   1.1174949999999999       -4.8076771153175892       -4.1500206436411791       -5.5311273755169870                0           0           0
          18           1   1.0167780000000000       -4.0232017591571916       -4.1334697902723523       -4.6491650061725185                0           0           0
          19           1   1.0699300000000000       -2.8693355647009784       -4.0603615296262161       -4.8547275429075949                0           0           0
          20           1  0.76943799999999996       -1.9715708695345038       -4.0824164222474169       -5.3019687489115919                0           0           0
          21           1   1.0829869999999999      -0.23389594635723565       -3.7567553203245465       -5.6615125489426088                0           0           0
          22           1   1.3859269999999999       0.98653166966496819       -3.6827948129506853       -5.3624170837207501                0           0           0
          23           1  0.77240699999999995        1.0921452820143536       -4.4953452649050041       -4.6511137951310273                0           0           0
          24           1   1.1917739999999999        2.0302337995145994       -4.5344496330004560       -5.0007324826111770                0           0           0
          25           1  0.76583000000000001        1.8149707975483969       -3.5347123689875546       -4.7335428111276734                0           0           0
          26           1  0.97774899999999998        2.1712065702627736       -3.5628886787049345       -5.6211585990167894                0           0           0
          27           1  0.83108000000000004        2.9382096039928758       -4.1970490054693563       -5.3751281029534796                0           0           0
          28           1   1.2215430000000000        3.9923051981663349       -4.2674559974839203       -5.2295216155482427                0           0           0
          29           1   1.3806490000000000        5.3886326229117163       -3.8277777924776810       -5.3266825429427405                0           0           0
          30           1   1.0400879999999999       -5.1690342478784244       -2.9696073113238795       -5.6295729923462563                0           0           0
          31           1  0.77126099999999997       -4.2891025702234318       -3.2886277951695226       -5.2656572423597936                0           0           0
          32           1  0.92384800000000000       -4.2960749375775933       -2.3873506515003866       -4.9382717763122734                0           0           0
          33           1  0.88862900000000000       -2.3239203312815939       -3.1378373110880111       -4.8738967833251996                0           0           0
          34           1  0.86158199999999996       -3.0697731498521179       -2.8389082640052905       -5.5410233333777592                0           0           0
          35           1   1.1209890000000000       -1.3075978393581442       -3.3590657860175908       -5.2638872594642976                0           0           0
          36           1   1.2420370000000001      -0.20155236288150391       -2.9249210350312520       -4.7200085915504548                0           0           0
          37           1  0.88274100000000000       -1.0399056043453658       -2.3304867899739490       -5.1677336695925931                0           0           0
          38           1   1.0668899999999999       0.70453984848840356       -2.4480991905530289       -5.4159914540173393                0           0           0
          39           1   1.1892499999999999        1.8763162124672617       -2.5760459135957436       -5.0899279879943204                0           0           0
          40           1  0.78319600000000000        2.8232193091953839       -2.8167994441609445       -5.3765441986195421                0           0           0
          41           1  0.77194799999999997        2.7232502224473265       -2.2973921458483395       -4.5325880722690917                0           0           0
          42           1  0.74873199999999995        3.6778983895146293       -3.3109818617671198       -5.1812082487630784                0           0           0
          43           1   1.0263439999999999        4.5200979502699354       -3.2065163603730062       -4.7477522872330331                0           0           0
          44           1  0.81308199999999997        4.5552213698050128       -2.4882609036798957       -5.4169333526992194                0           0           0
          45           1   1.1161060000000000        3.6431759010888527       -2.3656717084396646       -4.9660037499283209                0           0           0
          46           1   1.2125560000000000        5.4680471869487537       -2.4228109179247554       -4.9152846226459488                0           0           0
          47           1  0.74192100000000005       -5.0414021844609653       -2.0629874215879420       -5.3338419260949497                0           0           0
          48           1  0.91800800000000005       -4.1430223872754546       -1.5515663322769715       -5.5025123919253334                0           0           0
          49           1  0.83222700000000005       -3.2280265068742215       -1.9520914102089435       -5.2765112010217274                0           0           0
          50           1   1.0095200000000000       -2.5294965360978274       -1.2239672776837267       -4.8884789531359276                0           0           0
          51           1   1.4893410000000000       -2.1328263907855192       -2.1947816459749290       -5.5800436997596439                0           0           0
          52           1   1.2179240000000000       -1.3411078861687900       -1.3232517703276194       -4.7706709446778834                0           0           0
          53           1   1.0644769999999999      -0.21648512672576903       -1.6541631815525379       -5.2161613222971921                0           0           0
          54           1   1.3780330000000001       0.97113918076161632       -1.2740824431557121       -5.0282684367466013                0           0           0
          55           1   1.0451729999999999        2.1548561751554702       -1.4298436719768270       -4.8211312716605619                0           0           0
          56           1  0.79520100000000005        3.6400690147125818       -1.3740495698986255       -5.2467203013654142                0           0           0
          57           1   1.0204660000000001        4.4295030971171485       -1.5932048118326101       -4.5986862674437425                0           0           0
          58           1  0.80856499999999998        5.3325570603910961       -1.3793598650487340       -5.0157380314410007                0           0           0
          59           1   1.3538969999999999       -5.0585845605691633       -1.0782767194269036       -4.9879855832580997                0           0           0
          60           1  0.75854699999999997       -4.0643251031102379      -0.67873976539416514       -5.1854703864169744                0           0           0
          61           1  0.73175199999999996       -2.4347867327139738      -0.43173647132291304       -5.3693139918653614                0           0           0
          62           1   1.0328729999999999       -3.2265896754070904      -0.32147360056925667       -4.8626205886230665                0           0           0
          63           1  0.75083299999999997       -1.6071168053060090      -0.29528868642771755       -5.2715938553121617                0           0           0
          64           1  0.82179500000000005       -1.8877139727926333       -1.0777204197472132       -5.6614498377906202                0           0           0
          65           1  0.90665300000000004      -9.33773821727701403E-003 -0.65566234447791860       -4.8675806441393998                0           0           0
          66           1  0.88653700000000002      -0.93777784132810549      -0.30426717154671579       -4.6193342822421863                0           0           0
          67           1   1.1960150000000001       0.61214031509973132      -5.78234065284499721E-002  -5.5100159334378445                0           0           0
          68           1   1.0855290000000000        1.7610116584675310      -0.25770512768620524       -4.9767035983685295                0           0           0
          69           1  0.97821599999999997        2.8746644829467733      -0.73699619298446972       -5.2580231535032578                0           0           0
          70           1   1.4363210000000000        3.8770429052891675      -0.46802228346602259       -4.6854331535701546                0           0           0
          71           1   1.1656560000000000        5.2174095117760615      -0.35749572925086248       -4.9076683408182848                0           0           0
          72           1   1.0241950000000000       -5.1396683341337832       5.83116478556577889E-002  -5.4440423081605216                0           0           0
          73           1  0.83424600000000004       -4.6085367085880078       0.76661836475911116       -4.9659364162675645                0           0           0
          74           1   1.2242780000000000       -5.7175036950102909       0.90331759858095673       -4.8395196162142247                0           0           0
          75           1   1.2615920000000000       -3.9357669629555194       0.26444528636369657       -5.6897941681138455                0           0           0
          76           1  0.96946900000000003       -2.7345950949994413       0.42447386461399539       -5.5140509686955355                0           0           0
          77           1   1.0105480000000000       -3.3811137654917758       0.85879684489527897       -4.7529190210503183                0           0           0
          78           1   1.1696240000000000       -1.6372860755408700       0.71703755266018199       -5.3781336866835776                0           0           0
          79           1  0.91265600000000002       -2.2986180825342659        1.0217447736271170       -4.5859372812381487                0           0           0
          80           1  0.77751099999999995      -0.66506032871014131       0.45435536936057375       -5.3580625098235988                0           0           0
          81           1  0.88239800000000002       0.43087439550169560        1.0331500574494141       -5.3361468242090311                0           0           0
          82           1  0.79924200000000001        1.0755544130635482       0.44166198060998951       -4.6734352718585441                0           0           0
          83           1   1.1011640000000000        1.4521247298048916       0.81842526474694477       -5.6067754486057071                0           0           0
          84           1   1.4763390000000001        2.1775945402363170       0.88722426241940688       -4.5387586177317090                0           0           0
          85           1  0.85063500000000003        2.9564594209316155       0.18538957353792362       -4.8861128637060451                0           0           0
          86           1  0.83979999999999999        3.6397600612229830       0.21158625493985639       -5.5424183119534254                0           0           0
          87           1   1.1119710000000000        4.4776832906867110       0.66340673350582957       -5.0029289318548944                0           0           0
          88           1  0.92940100000000003       -5.4541363346540690        1.9609501838462116       -5.0995718124961869                0           0           0
          89           1  0.98624599999999996       -4.6153315995428290        2.3572780371788902       -5.6289781925922941                0           0           0
          90           1  0.88377099999999997       -3.8550534801379230        1.4241400642332875       -5.5100727025554725                0           0           0
          91           1   1.4289920000000000       -4.4178137629412939        1.7665865597336463       -4.5664685763153141                0           0           0
          92           1   1.2863240000000000       -2.6675530015199351        1.6195866148598661       -5.4941538379415835                0           0           0
          93           1  0.83280200000000004       -3.2628472860411617        1.8623794819361530       -4.5943347011069982                0           0           0
          94           1  0.91532000000000002       -1.5856228360014137        1.8541856147451456       -5.2118056287990511                0           0           0
          95           1   1.0549850000000001      -0.61849340473685910        1.4260683497371200       -5.3317147712073849                0           0           0
          96           1   1.4844250000000001       0.40441387126458217        2.1859406632736702       -5.4309033838862613                0           0           0
          97           1  0.86414400000000002        1.4754482077789399        1.8091561080569729       -5.3070613323201155                0           0           0
          98           1   1.3125690000000001        2.4418379958787586        2.2774042145801339       -5.1457123099501674                0           0           0
          99           1  0.82318199999999997        2.3789253784091819        1.2570186020667826       -5.6273105806906782                0           0           0
         100           1   1.2526790000000001        3.3990733911109849        1.2337005565514776       -5.3637465728017437                0           0           0
         101           1   1.3715560000000000        4.6946598287634309        1.9456385127701283       -5.2168812878769604                0           0           0
         102           1   1.1018300000000001       -5.2701041060684588        2.9242790471587181       -4.6593429229034777                0           0           0
         103           1   1.0932630000000001       -3.5666663992446477        2.4601163646065665       -5.3473190271357129                0           0           0
         104           1  0.91189900000000002       -4.1184443456664521        2.8858221254655128       -4.5160653228192524                0           0           0
         105           1  0.73728300000000002       -2.6088979552670906        2.6413390057947161       -5.2645326726364194                0           0           0
         106           1  0.79696199999999995       -3.3107666628137937        3.4009172148048297       -5.2573718186452636                0           0           0
         107           1   1.2884510000000000       -1.6720757368806973        2.9551790299301715       -4.9521921051231512                0           0           0
         108           1  0.90628100000000000      -0.72529732809212888        2.3966449626789270       -4.7434613079628178                0           0           0
         109           1   1.2439519999999999      -0.38288621106138798        3.3628487259898083       -5.1848739284742349                0           0           0
         110           1  0.85372000000000003      -0.79433537810257171        2.4303457866100100       -5.7174465735603182                0           0           0
         111           1  0.79320299999999999       0.60902851600199437        3.2940451787750522       -5.5586330645339634                0           0           0
         112           1  0.83657099999999995        1.1761896074434608        2.4628102296738810       -4.6461560412473784                0           0           0
         113           1  0.79898800000000003        2.9586538947321817        3.1877853948025514       -4.7819037140185836                0           0           0
         114           1  0.97961900000000002        3.5956214392045265        2.3804624303545943       -4.7881274674570875                0           0           0
         115           1  0.80490099999999998        4.3392383209229486        2.9631526059339901       -5.0327369540317335                0           0           0
         116           1  0.76785300000000001        5.2774258579117692        2.8453173479480061       -5.1964295491737031                0           0           0
         117           1  0.78729899999999997       -4.9519011439329059        4.4940541189370684       -5.4866852920672846                0           0           0
         118           1  0.86933700000000003       -5.5476168053014714        3.5919925023917756       -5.4429907237553881                0           0           0
         119           1   1.4795579999999999       -4.3749391833729678        3.5612281985561207       -5.4199987702950576                0           0           0
         120           1   1.1486650000000000       -3.1726200949380803        4.3760336182307000       -5.0918174940596481                0           0           0
         121           1  0.75789499999999999       -2.3797377464176597        3.7424122271147606       -4.9438008865682344                0           0           0
         122           1  0.80026200000000003       -2.3052947929777563        4.4551351634956990       -5.6280562840920991                0           0           0
         123           1  0.84546600000000005       -1.5119418288909054        3.9692578601736006       -5.5378078625012250                0           0           0
         124           1  0.74727200000000005       -1.2028549445811363        3.8596282079759749       -4.6747510382102284                0           0           0
         125           1   1.1842509999999999       -1.9050536673527061        4.6032116736583255       -4.6966702176964752                0           0           0
         126           1   1.0372950000000001      -0.63929415117717525        4.5195851123335302       -5.4045674086011459                0           0           0
         127           1  0.75573400000000002       0.28204252090739956        4.1602936276807387       -5.1127950559232946                0           0           0
         128           1  0.90554000000000001        1.2336531606998786        4.0955187117865606       -5.5710795174288235                0           0           0
         129           1  0.73019400000000001        1.8130959729773313        4.2116995104055110       -4.6917736927024283                0           0           0
         130           1   1.1501790000000001        2.1517407541176246        3.5474695858779377       -5.3251288131929178                0           0           0
         131           1   1.0361840000000000        3.0261333394498848        4.2493042116540831       -5.0729938847338563                0           0           0
         132           1  0.78415599999999996        3.9319313493183596        3.9091758515038713       -5.1479906497761041                0           0           0
         133           1  0.84128000000000003        4.6850336193212403        4.1823032626595058       -4.6283981875576332                0           0           0
         134           1   1.3047489999999999        4.8116665619735475        3.6891688437815624       -5.6339587396869089                0           0           0
         135           1  0.87163800000000002       -5.3649745951987144        5.3253374923354748       -5.1936586397421909                0           0           0
         136           1   1.1479109999999999       -4.3621863748686414        4.7457468346385934       -4.6954252501165188                0           0           0
         137           1  0.85967499999999997       -3.6070719948625394        5.3365849196570991       -5.1031505922712839                0           0           0
         138           1  0.80051799999999995       -4.4896016629465070        5.3873054311519191       -5.5084936528477186                0           0           0
         139           1   1.1004989999999999       -2.5921449694133387        5.4342907864320100       -5.4139921254346763                0           0           0
         140           1  0.95438500000000004       -1.5541986059958468        5.6979660247040744       -5.1986581982918825                0           0           0
         141           1  0.98720399999999997      -0.34825620883142427        5.6409658262562807       -5.5620010829242847                0           0           0
         142           1  0.86126300000000000       0.22160959379682765        5.0218781244056210       -4.8332992080838331                0           0           0
         143           1  0.79245800000000000        1.0861756482544882        4.6938587105052765       -4.7760121851014485                0           0           0
         144           1   1.2686580000000001        1.9905137706005789        4.9474445746235336       -5.3174705464728813                0           0           0
         145           1  0.86478800000000000        2.9202685038933396        5.2729986224929881       -4.8603159875612691                0           0           0
         146           1  0.73688299999999995        3.1477656010972535        5.0103726249810165       -5.6982742978272034                0           0           0
         147           1   1.4304490000000001        3.9922697146392228        4.9935322874460386       -4.9160050971579174                0           0           0
         148           1  0.76117100000000004        5.1020196875132697        5.0302329928499674       -5.0215418735069930                0           0           0
         149           1  0.81904200000000005        4.6150078820042619        4.8805707063275623        5.6727129822517561                0           0           0
         150           1  0.74355499999999997       -5.1804587561215181       -5.2295129917166037       -3.7829384693782253                0           0           0
         151           1  0.76271500000000003       -3.9025782628875105       -5.0066461396844488       -3.9567682971135869                0           0           0
         152           1  0.76898400000000000       -2.4917395276330168       -4.8051980633051095       -4.0487115663187900                0           0           0
         153           1   1.0236600000000000       -3.1902477391550645       -5.5611734125924785       -3.5251647415686453                0           0           0
         154           1  0.73077700000000001       -1.4133745407816258       -5.0754886165907820       -3.6683196419462640                0           0           0
         155           1   1.1202880000000000       -2.0367946096891369       -5.6787457593357269       -4.1898061716550874                0           0           0
         156           1  0.76807899999999996       -1.2239223199900877       -5.1466670120031690       -4.4873169694814887                0           0           0
         157           1   1.3321630000000000      -0.40803543631483663       -4.9679553655592947       -3.6597795531891690                0           0           0
         158           1  0.80179999999999996       0.66844112279183943       -4.9116294543600336       -3.9417518955107003                0           0           0
         159           1  0.94373200000000002        1.6228190701838496       -5.0579178872090980       -4.0307583060040315                0           0           0
         160           1  0.95481799999999994        3.1808639123613407       -4.6728878125799067       -4.5045841490419738                0           0           0
         161           1   1.4699640000000000        2.7781941124640106       -5.6435946633730500       -3.8577361835229325                0           0           0
         162           1   1.3309860000000000        4.2523596686512501       -5.0886531486342266       -4.0882871006225914                0           0           0
         163           1   1.1672389999999999        5.5653368873553628       -5.5032011834332319       -4.4548152892920960                0           0           0
         164           1  0.96901499999999996       -5.4444918268474494       -4.3995238446052642       -4.4204291692007427                0           0           0
         165           1   1.1382319999999999       -4.6481324007694758       -4.3860428699021012       -3.6084682100264018                0           0           0
         166           1   1.0295930000000000       -5.6958670899058168       -3.7175169593027348       -3.5814364803308871                0           0           0
         167           1  0.75638000000000005       -4.1007490083953257       -3.5510028944984353       -3.8332526781340190                0           0           0
         168           1   1.4976440000000000       -3.2662705977079427       -4.1950397927931826       -3.6179823833972855                0           0           0
         169           1   1.3677140000000001       -1.8359016403378199       -3.9913512878725750       -4.2005909139304061                0           0           0
         170           1  0.87362600000000001      -0.82734899621003510       -4.3067674578632742       -4.4446106679621469                0           0           0
         171           1  0.77448300000000003      -0.48179950384916559       -3.9068203215711046       -3.6628366044506473                0           0           0
         172           1   1.1426689999999999       0.18791704281077504       -4.1425209308163700       -4.4626104001628235                0           0           0
         173           1   1.6053649999999999        1.3771024945929806       -3.8464036892995841       -3.7876035076852252                0           0           0
         174           1  0.81254700000000002        2.3872379293606354       -4.4068318174389818       -4.0211130622989115                0           0           0
         175           1   1.5251770000000000        2.8649517333445651       -3.4491535225670424       -4.4883988177415199                0           0           0
         176           1  0.90739599999999998        3.8996700089010474       -3.9337650685909864       -4.1677614915027972                0           0           0
         177           1  0.91723800000000000        3.4629440743397808       -3.3044269061411633       -3.4499482655474436                0           0           0
         178           1  0.98055700000000001        4.9351537893667388       -4.1327878441871428       -4.2292740566969345                0           0           0
         179           1   1.4378010000000001       -4.9312163194504874       -3.2573424357065455       -4.4108562368548352                0           0           0