LAMMPS data file via write_data, version 17 Nov 2016, timestep = 0
      
  1500 atoms
      
1 atom types
  -5.7235712129999996        5.7235712129999996      xlo xhi
  -5.7235712129999996        5.7235712129999996      ylo yhi
  -5.7235712129999996        5.7235712129999996      zlo zhi
Masses
      
1 1
      
Pair Coeffs # lj/poly
      
                               1 1.0 1.0 2.025 1.25 0.2
      
Atoms # charge
      
           1           1  0.82965299999999997       -5.5524853553479705       -4.8786649470089376       -5.2656788620299722                0           0           0
           2           1   1.5413479999999999       -4.5882604748886235       -5.2698931442614567       -4.7557204697176276                0           0           0
           3           1  0.86062700000000003       -3.8161091972051562       -4.7617283016769898       -5.4941279233967188                0           0           0
           4           1   1.2325940000000000       -3.1908877397542716       -5.2212576038715888       -4.6664056025251259                0           0           0
           5           1  0.92110899999999996       -2.0943734707207127       -4.8947512854285780       -4.8990498335897339                0           0           0
           6           1   1.5043869999999999       -1.0422907366155378       -4.7256415114335946       -5.4652020836533381                0           0           0
           7           1  0.88103100000000001      -0.19863714262947951       -5.1575440016331955       -4.7418999893850202                0           0           0
           8           1  0.92227999999999999       0.29984534304904464       -4.6658392221695220       -5.4711290202252041                0           0           0
           9           1   1.5129459999999999       0.93637284826853495       -5.5252963288856796       -4.9829267400614041                0           0           0
          10           1  0.87097899999999995        2.1149240348404001       -5.5807026066005081       -4.7749884626270491                0           0           0
          11           1  0.82823300000000000        1.9347325624945411       -5.3951629434332675       -5.6992918020028780                0           0           0
          12           1   1.3333429999999999        3.0282280068885452       -5.3279286036613547       -5.5344617719922651                0           0           0
          13           1  0.81986499999999995        4.1198782987539015       -5.3058971121383491       -5.3248113669209358                0           0           0
          14           1  0.74748000000000003        3.5240757994202472       -5.5416902861405513       -4.6476385483358911                0           0           0
          15           1  0.86770400000000003        4.9106866544623760       -4.8161256298916149       -4.9841516084972453                0           0           0
          16           1  0.73948999999999998        4.6861563174289529       -5.6947280348445126       -4.7996898759448072                0           0           0
          17           1   1.1174949999999999       -4.8112073050557109       -4.1476753221230744       -5.5276236165224688                0           0           0
          18           1   1.0167780000000000       -4.0286035464833923       -4.1303022813871451       -4.6475505204984850                0           0           0
          19           1   1.0699300000000000       -2.8725919169036862       -4.0578870942833829       -4.8542914170139158                0           0           0
          20           1  0.76943799999999996       -1.9740655185903266       -4.0817238687239445       -5.3013450432559566                0           0           0
          21           1   1.0829869999999999      -0.23584342268868141       -3.7596159995363094       -5.6619383533491989                0           0           0
          22           1   1.3859269999999999       0.98371502010775647       -3.6825420466039227       -5.3623190916648271                0           0           0
          23           1  0.77240699999999995        1.0850126299928595       -4.5024435661851072       -4.6555727609391750                0           0           0
          24           1   1.1917739999999999        2.0246058364889938       -4.5402785799685050       -5.0012056592012311                0           0           0
          25           1  0.76583000000000001        1.8152920053568788       -3.5370731637766260       -4.7345469106374996                0           0           0
          26           1  0.97774899999999998        2.1667569142446741       -3.5636199501954375       -5.6213821636346468                0           0           0
          27           1  0.83108000000000004        2.9269310783957714       -4.2010112545740643       -5.3794349288634189                0           0           0
          28           1   1.2215430000000000        3.9765902129286612       -4.2742931421358321       -5.2399487793001391                0           0           0
          29           1   1.3806490000000000        5.3887033632360133       -3.8320135066834924       -5.3278544593970141                0           0           0
          30           1   1.0400879999999999       -5.1869817890827168       -2.9542452937852772       -5.6217903366125075                0           0           0
          31           1  0.77126099999999997       -4.2999415944683612       -3.2828092471419157       -5.2680450158124783                0           0           0
          32           1  0.92384800000000000       -4.3000704230834801       -2.3801577859378624       -4.9368038852267428                0           0           0
          33           1  0.88862900000000000       -2.3254234425236824       -3.1368226970552846       -4.8735898367700470                0           0           0
          34           1  0.86158199999999996       -3.0716374013245291       -2.8364790087067937       -5.5392295261901880                0           0           0
          35           1   1.1209890000000000       -1.3084329189520050       -3.3597236137574074       -5.2637021715352015                0           0           0
          36           1   1.2420370000000001      -0.20082748423333108       -2.9250386642191231       -4.7210821416922037                0           0           0
          37           1  0.88274100000000000       -1.0391013904271995       -2.3309556080506169       -5.1677895105276948                0           0           0
          38           1   1.0668899999999999       0.70784989602567094       -2.4475089831538370       -5.4152341927458494                0           0           0
          39           1   1.1892499999999999        1.8825942839958838       -2.5773154746248048       -5.0897186491780415                0           0           0
          40           1  0.78319600000000000        2.8378377389067495       -2.8158171390340412       -5.3729406091479639                0           0           0
          41           1  0.77194799999999997        2.7317441988031401       -2.3003450110808807       -4.5317129321302012                0           0           0
          42           1  0.74873199999999995        3.6645952858747286       -3.3007229485423299       -5.1978067729565369                0           0           0
          43           1   1.0263439999999999        4.5025857844124033       -3.2480498587716169       -4.7643735299473340                0           0           0
          44           1  0.81308199999999997        4.5402873729132196       -2.5163247064028060       -5.4299521592574216                0           0           0
          45           1   1.1161060000000000        3.6575744684607177       -2.3527367813529962       -4.9591386577157763                0           0           0
          46           1   1.2125560000000000        5.4142739679991330       -2.4153691506344761       -4.8909584764188327                0           0           0
          47           1  0.74192100000000005       -5.0784491973325299       -2.0683881337410077       -5.2764751179372613                0           0           0
          48           1  0.91800800000000005       -4.1370283926206088       -1.5486110504189448       -5.5015147618164120                0           0           0
          49           1  0.83222700000000005       -3.2248655080222282       -1.9490987656167338       -5.2747905633800478                0           0           0
          50           1   1.0095200000000000       -2.5253242512688501       -1.2230413588598941       -4.8878741904462997                0           0           0
          51           1   1.4893410000000000       -2.1324893542637864       -2.1941088054224545       -5.5796150361139620                0           0           0
          52           1   1.2179240000000000       -1.3382165134488444       -1.3226912318901896       -4.7701984066118941                0           0           0
          53           1   1.0644769999999999      -0.21448456455988563       -1.6547254352389835       -5.2167909467558840                0           0           0
          54           1   1.3780330000000001       0.97297344563913146       -1.2736743290507198       -5.0276246700543421                0           0           0
          55           1   1.0451729999999999        2.1566233785371072       -1.4291302020624936       -4.8212372614053809                0           0           0
          56           1  0.79520100000000005        3.6435202865332812       -1.3655887764720820       -5.2486998871562403                0           0           0
          57           1   1.0204660000000001        4.4585460103634365       -1.5609584734104303       -4.6079977038398683                0           0           0
          58           1  0.80856499999999998        5.3546964794014436       -1.3697754386409366       -5.0309514332305181                0           0           0
          59           1   1.3538969999999999       -5.0446737711721479       -1.0698370111311029       -4.9829598574159117                0           0           0
          60           1  0.75854699999999997       -4.0569031644977089      -0.67494846265539277       -5.1848818507731895                0           0           0
          61           1  0.73175199999999996       -2.4313602509257199      -0.43094633387766557       -5.3684908862817293                0           0           0
          62           1   1.0328729999999999       -3.2214429282551000      -0.32002424449947675       -4.8598321454979612                0           0           0
          63           1  0.75083299999999997       -1.6043115743256271      -0.29627088721515538       -5.2700108850521517                0           0           0
          64           1  0.82179500000000005       -1.8849341744343002       -1.0774420415443711       -5.6618126161967020                0           0           0
          65           1  0.90665300000000004      -7.95805939057103728E-003 -0.65575647391145431       -4.8671159085233029                0           0           0
          66           1  0.88653700000000002      -0.93537090208745699      -0.30245592650151210       -4.6183135499866417                0           0           0
          67           1   1.1960150000000001       0.61492823581335454      -5.79450940874695064E-002  -5.5080929302073898                0           0           0
          68           1   1.0855290000000000        1.7635123586093355      -0.25697449152858809       -4.9771264828750237                0           0           0
          69           1  0.97821599999999997        2.8755987403928263      -0.73514186227932932       -5.2572779383326278                0           0           0
          70           1   1.4363210000000000        3.8766221400881289      -0.46233204632537994       -4.6835926003294990                0           0           0
          71           1   1.1656560000000000        5.2206915641841345      -0.35491464847257248       -4.9012888264435412                0           0           0
          72           1   1.0241950000000000       -5.1424631896238555       5.92820323710556707E-002  -5.4456581702233260                0           0           0
          73           1  0.83424600000000004       -4.6099349033388899       0.76559074184322906       -4.9648897345993923                0           0           0
          74           1   1.2242780000000000       -5.7166559252873173       0.90344565001748922       -4.8365119051386314                0           0           0
          75           1   1.2615920000000000       -3.9350911343130104       0.26519785654728345       -5.6881882359680338                0           0           0
          76           1  0.96946900000000003       -2.7345113463825221       0.42360750742661946       -5.5144139466403015                0           0           0
          77           1   1.0105480000000000       -3.3796725864410613       0.85850216846309113       -4.7515046645259886                0           0           0
          78           1   1.1696240000000000       -1.6374074452704139       0.71558690794863011       -5.3762138183280097                0           0           0
          79           1  0.91265600000000002       -2.2963202842401467        1.0217680904332411       -4.5821851115995162                0           0           0
          80           1  0.77751099999999995      -0.66559110779462571       0.45317092245948931       -5.3567115572642479                0           0           0
          81           1  0.88239800000000002       0.43366573854993273        1.0355201972103458       -5.3354151364674962                0           0           0
          82           1  0.79924200000000001        1.0779190237843634       0.44420896222061845       -4.6716674768814244                0           0           0
          83           1   1.1011640000000000        1.4548506634409311       0.81792164440693327       -5.6053880981292838                0           0           0
          84           1   1.4763390000000001        2.1773026678929499       0.88824150994734641       -4.5364145567272871                0           0           0
          85           1  0.85063500000000003        2.9580625434656334       0.18944430160800696       -4.8874495917280836                0           0           0
          86           1  0.83979999999999999        3.6452354691689610       0.21054060054820400       -5.5428549376966938                0           0           0
          87           1   1.1119710000000000        4.4798152603618657       0.66494495640229001       -5.0005911595875645                0           0           0
          88           1  0.92940100000000003       -5.4561807440195267        1.9600695555990271       -5.0995882387215055                0           0           0
          89           1  0.98624599999999996       -4.6163019718738605        2.3567033182746187       -5.6277403345847938                0           0           0
          90           1  0.88377099999999997       -3.8558275882350088        1.4233490555464430       -5.5085909005066043                0           0           0
          91           1   1.4289920000000000       -4.4187058841893334        1.7661308715087296       -4.5652169990540319                0           0           0
          92           1   1.2863240000000000       -2.6702229759302871        1.6165000314648497       -5.4894553389208323                0           0           0
          93           1  0.83280200000000004       -3.2631974110722717        1.8618416496698513       -4.5908189434915361                0           0           0
          94           1  0.91532000000000002       -1.5856975189670743        1.8512774053547796       -5.2074501102029691                0           0           0
          95           1   1.0549850000000001      -0.61657677330790239        1.4252242002831412       -5.3293862729317363                0           0           0
          96           1   1.4844250000000001       0.40530325427101221        2.1896739593727723       -5.4347042954286113                0           0           0
          97           1  0.86414400000000002        1.4751122066860862        1.8113151941063101       -5.3057834686520584                0           0           0
          98           1   1.3125690000000001        2.4419430297606244        2.2802732703336517       -5.1457367528644955                0           0           0
          99           1  0.82318199999999997        2.3811679547326925        1.2556179706594142       -5.6210602349132959                0           0           0
         100           1   1.2526790000000001        3.4012319786980694        1.2325431789506371       -5.3618387603219722                0           0           0
         101           1   1.3715560000000000        4.6945806887418371        1.9448553710089360       -5.2155850139741649                0           0           0
         102           1   1.1018300000000001       -5.2706255192146987        2.9222972493104393       -4.6571486184860973                0           0           0
         103           1   1.0932630000000001       -3.5683100275852802        2.4595419362184199       -5.3442733904300557                0           0           0
         104           1  0.91189900000000002       -4.1199369345327934        2.8849049107046252       -4.5133541938710380                0           0           0
         105           1  0.73728300000000002       -2.6120393433963658        2.6399404571557685       -5.2603732283486124                0           0           0
         106           1  0.79696199999999995       -3.3108926079041479        3.4006289951416431       -5.2544102600540645                0           0           0
         107           1   1.2884510000000000       -1.6749889961630435        2.9538296073355479       -4.9478458333760837                0           0           0
         108           1  0.90628100000000000      -0.72584952285315563        2.3976878896656260       -4.7449837646519413                0           0           0
         109           1   1.2439519999999999      -0.38460892731698326        3.3599925845435443       -5.1980612049649970                0           0           0
         110           1  0.85372000000000003      -0.78329573473877900        2.4269340271019377       -5.7199967744766225                0           0           0
         111           1  0.79320299999999999       0.61274743040838953        3.3023672848166452       -5.5980887792612926                0           0           0
         112           1  0.83657099999999995        1.1739116104987977        2.4692449068337599       -4.6463812356545109                0           0           0
         113           1  0.79898800000000003        2.9599137764377534        3.1904180937413891       -4.7856172616233543                0           0           0
         114           1  0.97961900000000002        3.5949455599533824        2.3821818208663803       -4.7878565402463851                0           0           0
         115           1  0.80490099999999998        4.3397314350979439        2.9625970949410547       -5.0308486975054398                0           0           0
         116           1  0.76785300000000001        5.2781816034156321        2.8445081875509430       -5.1949720230164322                0           0           0
         117           1  0.78729899999999997       -4.9545596190547467        4.4936744018937596       -5.4872258558651863                0           0           0
         118           1  0.86933700000000003       -5.5493961081619680        3.5890348495020046       -5.4413541905699878                0           0           0
         119           1   1.4795579999999999       -4.3760344085052241        3.5609552359095193       -5.4168453206933886                0           0           0
         120           1   1.1486650000000000       -3.1830154732936582        4.3769922512011927       -5.0849209064268228                0           0           0
         121           1  0.75789499999999999       -2.3854073860616412        3.7430682436390210       -4.9450471798927582                0           0           0
         122           1  0.80026200000000003       -2.3196111772389489        4.4451732134579149       -5.6150712250234793                0           0           0
         123           1  0.84546600000000005       -1.5238678779308286        3.9580566980950085       -5.5392472306634337                0           0           0
         124           1  0.74727200000000005       -1.2030411610266682        3.8585496165350808       -4.6789393293974468                0           0           0
         125           1   1.1842509999999999       -1.9062384310149807        4.6015179987376911       -4.6945255842768869                0           0           0
         126           1   1.0372950000000001      -0.65478740061609830        4.5180140785266687       -5.4068272584986490                0           0           0
         127           1  0.75573400000000002       0.26364266828594829        4.1597975804925529       -5.1411501100181720                0           0           0
         128           1  0.90554000000000001        1.2386819319294595        4.0855583760342942       -5.6172782358086195                0           0           0
         129           1  0.73019400000000001        1.8097677718579961        4.2148092826651471       -4.6934503667206018                0           0           0
         130           1   1.1501790000000001        2.1508566981013759        3.5483233088197750       -5.3276467672364278                0           0           0
         131           1   1.0361840000000000        3.0262194428070046        4.2482818723717521       -5.0781880054141819                0           0           0
         132           1  0.78415599999999996        3.9311717964344322        3.9056954866981499       -5.1491326791551204                0           0           0
         133           1  0.84128000000000003        4.6835351700876640        4.1798439143565265       -4.6301247809359509                0           0           0
         134           1   1.3047489999999999        4.8102228341915581        3.6859326234153258       -5.6357882212187533                0           0           0
         135           1  0.87163800000000002       -5.3696362808489368        5.3259315512203695       -5.1920882301601425                0           0           0
         136           1   1.1479109999999999       -4.3680907012717469        4.7487165462946006       -4.6944271315585198                0           0           0
         137           1  0.85967499999999997       -3.6135130128252260        5.3399034734668138       -5.1022189986223232                0           0           0
         138           1  0.80051799999999995       -4.4944902677548324        5.3876027668100868       -5.5095751490563849                0           0           0
         139           1   1.1004989999999999       -2.5983615059305496        5.4341906689057513       -5.4081075347610827                0           0           0
         140           1  0.95438500000000004       -1.5560088432758201        5.6945967352403937       -5.2015728368113363                0           0           0
         141           1  0.98720399999999997      -0.33472245818892876        5.6421760166831838       -5.5522614234131646                0           0           0
         142           1  0.86126300000000000       0.21776917057958300        5.0128806943773565       -4.8421929323918622                0           0           0
         143           1  0.79245800000000000        1.0870084557991113        4.6998246815335065       -4.8025858583884098                0           0           0
         144           1   1.2686580000000001        1.9929554012324724        4.9416173975766124       -5.3311625639056848                0           0           0
         145           1  0.86478800000000000        2.9190799897793784        5.2683467492356275       -4.8633404630543504                0           0           0
         146           1  0.73688299999999995        3.1234185310411267        5.0151707658659781       -5.7116189790336680                0           0           0
         147           1   1.4304490000000001        3.9918974392420221        4.9926315610414793       -4.9137556100531352                0           0           0
         148           1  0.76117100000000004        5.1011475566250084        5.0314825719949869       -5.0214516246538574                0           0           0
         149           1  0.81904200000000005        4.6133281109031259        4.8785570956554345        5.6735636568111687                0           0           0
         150           1  0.74355499999999997       -5.1814627237496174       -5.2278315907751063       -3.7844361556353046                0           0           0
         151           1  0.76271500000000003       -3.9057665954642244       -5.0057486166353469       -3.9562465952879018                0           0           0
         152           1  0.76898400000000000       -2.4934807339334313       -4.8045771129685493       -4.0487738011277585                0           0           0
         153           1   1.0236600000000000       -3.1919494934737380       -5.5606639588644962       -3.5252046599886686                0           0           0
         154           1  0.73077700000000001       -1.4171411276891588       -5.0683585774900193       -3.6732837742500983                0           0           0
         155           1   1.1202880000000000       -2.0389393952008787       -5.6789537454435832       -4.1917816762812592                0           0           0
         156           1  0.76807899999999996       -1.2249329434531626       -5.1511357720761950       -4.4901288189261006                0           0           0
         157           1   1.3321630000000000      -0.41035998599507906       -4.9708307244580521       -3.6595110453605333                0           0           0
         158           1  0.80179999999999996       0.66352757373974658       -4.9149741240451661       -3.9440266165808988                0           0           0
         159           1  0.94373200000000002        1.6171589347572919       -5.0662237277341386       -4.0349501398325964                0           0           0
         160           1  0.95481799999999994        3.1722939046946923       -4.6784462225661567       -4.5106434210738655                0           0           0
         161           1   1.4699640000000000        2.7731088175931440       -5.6466412923605214       -3.8616726254776257                0           0           0
         162           1   1.3309860000000000        4.2465658720752639       -5.0911250277330105       -4.0897485523313986                0           0           0
         163           1   1.1672389999999999        5.5608067947912954       -5.4969178040883477       -4.4555155132585691                0           0           0
         164           1  0.96901499999999996       -5.4400842395976676       -4.3960500815254591       -4.4231765770970553                0           0           0
         165           1   1.1382319999999999       -4.6492525919491552       -4.3838683338322202       -3.6077684482369552                0           0           0
         166           1   1.0295930000000000       -5.6944048825346627       -3.7172388948144088       -3.5819730935905745                0           0           0
         167           1  0.75638000000000005       -4.1063399007817534       -3.5476414596474690       -3.8359644175641234                0           0           0
         168           1   1.4976440000000000       -3.2690721481160225       -4.1933187479519232       -3.6186772179388473                0           0           0
         169           1   1.3677140000000001       -1.8383357528122173       -3.9905247388473173       -4.2009581210053355                0           0           0
         170           1  0.87362600000000001      -0.83104882641755840       -4.3106189720853347       -4.4443992623884574                0           0           0
         171           1  0.77448300000000003      -0.48231591635855509       -3.9085473168231726       -3.6644575589471695                0           0           0
         172           1   1.1426689999999999       0.18401056929221582       -4.1430986757321016       -4.4634888761018301                0           0           0
         173           1   1.6053649999999999        1.3746522001544692       -3.8505106537391778       -3.7914071568812240                0           0           0
         174           1  0.81254700000000002        2.3829741363344183       -4.4091890618588092       -4.0235306664022996                0           0           0
         175           1   1.5251770000000000        2.8668837481695739       -3.4528942555120161       -4.4905011372652925                0           0           0
         176           1  0.90739599999999998        3.8966432929479247       -3.9448553612005144       -4.1702935526431943                0           0           0
         177           1  0.91723800000000000        3.4654799843423412       -3.3075531935792277       -3.4540828225450628                0           0           0
         178           1  0.98055700000000001        4.9384025855702465       -4.1429217790612416       -4.2269648163743128                0           0           0
         179           1   1.4378010000000001       -4.9399026052086406       -3.2478519514905866       -4.4117509948692684                0           0           0