LAMMPS data file via write_data, version 17 Nov 2016, timestep = 0
      
  1500 atoms
      
1 atom types
  -5.7235712129999996        5.7235712129999996      xlo xhi
  -5.7235712129999996        5.7235712129999996      ylo yhi
  -5.7235712129999996        5.7235712129999996      zlo zhi
Masses
      
1 1
      
Pair Coeffs # lj/poly
      
                               1 1.0 1.0 2.025 1.25 0.2
      
Atoms # charge
      
           1           1  0.82965299999999997       -5.5425635602599321       -4.8817295116809483       -5.2668808746254312                0           0           0
           2           1   1.5413479999999999       -4.5750994158694436       -5.2714361955513898       -4.7574458860351703                0           0           0
           3           1  0.86062700000000003       -3.7980973196838228       -4.7711259154654915       -5.4922234322153560                0           0           0
           4           1   1.2325940000000000       -3.1688488242388750       -5.2178502446513484       -4.6540274371985610                0           0           0
           5           1  0.92110899999999996       -2.0781715140737584       -4.9038210077441295       -4.9113863944921112                0           0           0
           6           1   1.5043869999999999       -1.0367079547793239       -4.7498305347065539       -5.4701860421293853                0           0           0
           7           1  0.88103100000000001      -0.20178697642304400       -5.1776674100496081       -4.7438337739429510                0           0           0
           8           1  0.92227999999999999       0.28262754559021186       -4.6669590261889979       -5.4679729634058596                0           0           0
           9           1   1.5129459999999999       0.93779232091940568       -5.5140073495856630       -4.9738996367838570                0           0           0
          10           1  0.87097899999999995        2.1157468571051190       -5.5788700666412536       -4.7689143709436577                0           0           0
          11           1  0.82823300000000000        1.9389266679547550       -5.3957742854068362       -5.6934576667312573                0           0           0
          12           1   1.3333429999999999        3.0340790996623053       -5.3245858241534121       -5.5306386520074717                0           0           0
          13           1  0.81986499999999995        4.1254426729482603       -5.3072433917649251       -5.3205225999024330                0           0           0
          14           1  0.74748000000000003        3.5253085106310973       -5.5387040247354191       -4.6426400372263092                0           0           0
          15           1  0.86770400000000003        4.9240372556803553       -4.8175908751322689       -4.9805982241126072                0           0           0
          16           1  0.73948999999999998        4.6908839765119907       -5.6960357011440799       -4.7974188820442194                0           0           0
          17           1   1.1174949999999999       -4.7977355333563789       -4.1500228526291512       -5.5218844816828199                0           0           0
          18           1   1.0167780000000000       -3.9949656477706394       -4.1449308674212677       -4.6462081685072603                0           0           0
          19           1   1.0699300000000000       -2.8247362414912884       -4.0595062691504298       -4.8347802165300067                0           0           0
          20           1  0.76943799999999996       -1.9487553070480779       -4.0838096037848945       -5.3131411695770190                0           0           0
          21           1   1.0829869999999999      -0.25208231618599797       -3.7655305533020424       -5.6915304213646882                0           0           0
          22           1   1.3859269999999999       0.96785933483655473       -3.6925255531007730       -5.3545265943531790                0           0           0
          23           1  0.77240699999999995        1.1107010680742597       -4.5008591503705837       -4.6367492845597011                0           0           0
          24           1   1.1917739999999999        2.0365319531388852       -4.5383033111590763       -4.9976528163514597                0           0           0
          25           1  0.76583000000000001        1.8035990370429369       -3.5384787859298248       -4.7305249408912786                0           0           0
          26           1  0.97774899999999998        2.1621070650967793       -3.5639794398009199       -5.6164188251066749                0           0           0
          27           1  0.83108000000000004        2.9381992075980232       -4.1942085719116893       -5.3730498131172206                0           0           0
          28           1   1.2215430000000000        3.9928327702321518       -4.2754210537592110       -5.2402440451238208                0           0           0
          29           1   1.3806490000000000        5.3943188371813342       -3.8311097737420252       -5.3282604715490072                0           0           0
          30           1   1.0400879999999999       -5.1633223488064743       -2.9720039370040818       -5.6288136210340767                0           0           0
          31           1  0.77126099999999997       -4.2810309218086919       -3.2884833043097954       -5.2686955167064280                0           0           0
          32           1  0.92384800000000000       -4.2764424905541585       -2.3959612968905022       -4.9361461712178398                0           0           0
          33           1  0.88862900000000000       -2.3143427595007906       -3.1304069474328382       -4.8790860505674818                0           0           0
          34           1  0.86158199999999996       -3.0686583896601349       -2.8366824564209758       -5.5347084362668832                0           0           0
          35           1   1.1209890000000000       -1.3296331831361954       -3.3148978444337942       -5.3217589674815455                0           0           0
          36           1   1.2420370000000001      -0.20655654904942633       -2.9472651883717447       -4.7314044418842185                0           0           0
          37           1  0.88274100000000000       -1.0374999856337945       -2.3155597252856235       -5.1629626322858346                0           0           0
          38           1   1.0668899999999999       0.69653811982364733       -2.4528827439841736       -5.4161801599697084                0           0           0
          39           1   1.1892499999999999        1.8671702569922708       -2.5780224671809124       -5.0881029671225448                0           0           0
          40           1  0.78319600000000000        2.8110753955490750       -2.8155485581474133       -5.3758809444631854                0           0           0
          41           1  0.77194799999999997        2.7208527510726697       -2.2916615117311743       -4.5440846519370250                0           0           0
          42           1  0.74873199999999995        3.6784161073593395       -3.3225760511014042       -5.1737418219195952                0           0           0
          43           1   1.0263439999999999        4.5269957873639619       -3.2049903697856403       -4.7587088449562005                0           0           0
          44           1  0.81308199999999997        4.5611489479048686       -2.4815122263315077       -5.4175283315762544                0           0           0
          45           1   1.1161060000000000        3.6401577546525434       -2.3722641798220008       -4.9797295463423064                0           0           0
          46           1   1.2125560000000000        5.4809117440394353       -2.4297016341979654       -4.9167967890279645                0           0           0
          47           1  0.74192100000000005       -5.0027401194871368       -2.0580363500263927       -5.3626912691367998                0           0           0
          48           1  0.91800800000000005       -4.1495616847524879       -1.5552016389073717       -5.5040715557795084                0           0           0
          49           1  0.83222700000000005       -3.2329644808329623       -1.9495788671166898       -5.2782683071460816                0           0           0
          50           1   1.0095200000000000       -2.5304778407646022       -1.2205807207503385       -4.8832143908237002                0           0           0
          51           1   1.4893410000000000       -2.1357699886219823       -2.1881751728609600       -5.5793673487243707                0           0           0
          52           1   1.2179240000000000       -1.3396148042097611       -1.3160010860949392       -4.7714109453669424                0           0           0
          53           1   1.0644769999999999      -0.21682960320445499       -1.6507202633537910       -5.2222463676491850                0           0           0
          54           1   1.3780330000000001       0.96831486751037232       -1.2769044092113857       -5.0279115240100980                0           0           0
          55           1   1.0451729999999999        2.1524032597698497       -1.4311290877554175       -4.8245945151744403                0           0           0
          56           1  0.79520100000000005        3.6387486099992756       -1.3733621140361176       -5.2545622558473211                0           0           0
          57           1   1.0204660000000001        4.4125379685979116       -1.5952234649817854       -4.6032824288184671                0           0           0
          58           1  0.80856499999999998        5.3245622704973421       -1.3863116049560915       -5.0083858075640189                0           0           0
          59           1   1.3538969999999999       -5.0647176650681951       -1.0800701678822104       -4.9896588103457544                0           0           0
          60           1  0.75854699999999997       -4.0658433045294577      -0.68114394195794770       -5.1855592983847325                0           0           0
          61           1  0.73175199999999996       -2.4364075771694975      -0.42973750054467619       -5.3664783651912282                0           0           0
          62           1   1.0328729999999999       -3.2278523486748281      -0.31965406094802429       -4.8599260869593648                0           0           0
          63           1  0.75083299999999997       -1.6084479970879046      -0.29679774374280576       -5.2671408164340985                0           0           0
          64           1  0.82179500000000005       -1.8914600947294349       -1.0748652423036509       -5.6601063477076083                0           0           0
          65           1  0.90665300000000004      -1.10873452623572177E-002 -0.65414201193107058       -4.8679482433329255                0           0           0
          66           1  0.88653700000000002      -0.93805594079153476      -0.29886595845130159       -4.6178184563489308                0           0           0
          67           1   1.1960150000000001       0.61328432819683965      -5.81930797227414587E-002  -5.5083166339035330                0           0           0
          68           1   1.0855290000000000        1.7596541191931809      -0.25922656263028276       -4.9767587207194488                0           0           0
          69           1  0.97821599999999997        2.8727631346122156      -0.73683620356221180       -5.2598854881790986                0           0           0
          70           1   1.4363210000000000        3.8756964026469909      -0.46707447774526223       -4.6871049325322103                0           0           0
          71           1   1.1656560000000000        5.2154953050342154      -0.36056978139979989       -4.9107671561531312                0           0           0
          72           1   1.0241950000000000       -5.1400359443271570       5.78846401817729728E-002  -5.4441357594704414                0           0           0
          73           1  0.83424600000000004       -4.6100364191399992       0.76673570463606300       -4.9657801143844695                0           0           0
          74           1   1.2242780000000000       -5.7193118319622078       0.90210341262709637       -4.8400416103453434                0           0           0
          75           1   1.2615920000000000       -3.9372562912903426       0.26441006360722064       -5.6893140967284150                0           0           0
          76           1  0.96946900000000003       -2.7382586058528715       0.42473967215642539       -5.5128213691197567                0           0           0
          77           1   1.0105480000000000       -3.3853772100614852       0.85913381214067464       -4.7507328738512644                0           0           0
          78           1   1.1696240000000000       -1.6408005158803913       0.71527499726639743       -5.3717652953962816                0           0           0
          79           1  0.91265600000000002       -2.3030719942537350        1.0189808188483944       -4.5782398581863584                0           0           0
          80           1  0.77751099999999995      -0.66813969359145986       0.45505620601692254       -5.3552900803238410                0           0           0
          81           1  0.88239800000000002       0.43191019550780929        1.0341838157555365       -5.3352590250417444                0           0           0
          82           1  0.79924200000000001        1.0762022163763367       0.44420349894667144       -4.6715232898729404                0           0           0
          83           1   1.1011640000000000        1.4526055407246430       0.81794097191511206       -5.6059997098681134                0           0           0
          84           1   1.4763390000000001        2.1751823658095137       0.88697947570122437       -4.5372970783162287                0           0           0
          85           1  0.85063500000000003        2.9548216270677212       0.18609003221480691       -4.8866060842388919                0           0           0
          86           1  0.83979999999999999        3.6383304913349050       0.21272381003837815       -5.5432053878900245                0           0           0
          87           1   1.1119710000000000        4.4768864547549256       0.66284762174276679       -5.0033344111849338                0           0           0
          88           1  0.92940100000000003       -5.4546123787219072        1.9600276530151142       -5.0985834125903766                0           0           0
          89           1  0.98624599999999996       -4.6151264542896850        2.3565902163927177       -5.6286763794963832                0           0           0
          90           1  0.88377099999999997       -3.8565865391827225        1.4258380817901060       -5.5092291370613067                0           0           0
          91           1   1.4289920000000000       -4.4194694586290266        1.7665518090856835       -4.5663541622861716                0           0           0
          92           1   1.2863240000000000       -2.6727637045531032        1.6165348595173619       -5.4859673215054450                0           0           0
          93           1  0.83280200000000004       -3.2656704583771772        1.8633415027914157       -4.5872028043247095                0           0           0
          94           1  0.91532000000000002       -1.5882258884341942        1.8500823393981678       -5.2036385239171254                0           0           0
          95           1   1.0549850000000001      -0.61780853252373991        1.4257694971250663       -5.3271336376643577                0           0           0
          96           1   1.4844250000000001       0.40664185249176743        2.1871400786387296       -5.4366924329995516                0           0           0
          97           1  0.86414400000000002        1.4764491322490860        1.8100076211964016       -5.3042753844309107                0           0           0
          98           1   1.3125690000000001        2.4421933958406985        2.2807610290254576       -5.1460090056603667                0           0           0
          99           1  0.82318199999999997        2.3788649368354680        1.2565725859963406       -5.6207897145634540                0           0           0
         100           1   1.2526790000000001        3.3991792076447709        1.2345461993689959       -5.3633389606164057                0           0           0
         101           1   1.3715560000000000        4.6938464020193660        1.9439752396002214       -5.2159845461007777                0           0           0
         102           1   1.1018300000000001       -5.2715671751129456        2.9237175508014737       -4.6592867618013587                0           0           0
         103           1   1.0932630000000001       -3.5678871698018395        2.4627617950832832       -5.3428514795693278                0           0           0
         104           1  0.91189900000000002       -4.1208226800768619        2.8849405408992563       -4.5123834623117007                0           0           0
         105           1  0.73728300000000002       -2.6132346549591801        2.6409542111607589       -5.2576697093283746                0           0           0
         106           1  0.79696199999999995       -3.3072542713203008        3.4052373367205533       -5.2499415849189246                0           0           0
         107           1   1.2884510000000000       -1.6773523629747480        2.9529411305584361       -4.9455225231994016                0           0           0
         108           1  0.90628100000000000      -0.72848864669478441        2.3953099235489326       -4.7429419718446981                0           0           0
         109           1   1.2439519999999999      -0.38481791809064347        3.3535235326396400       -5.1993987205894285                0           0           0
         110           1  0.85372000000000003      -0.78125638152575050        2.4248382152425130       -5.7193983784890623                0           0           0
         111           1  0.79320299999999999       0.61317449441975480        3.3013279334119705       -5.5972038090699865                0           0           0
         112           1  0.83657099999999995        1.1744732939997800        2.4698748850301282       -4.6483354482773578                0           0           0
         113           1  0.79898800000000003        2.9600104883558078        3.1902445888732736       -4.7845837953170172                0           0           0
         114           1  0.97961900000000002        3.5949569943103867        2.3819171035130449       -4.7885259265046693                0           0           0
         115           1  0.80490099999999998        4.3394440354029165        2.9621943163936102       -5.0315063115464724                0           0           0
         116           1  0.76785300000000001        5.2755887629438565        2.8442782415573955       -5.1956827902421452                0           0           0
         117           1  0.78729899999999997       -4.9521905076963515        4.4917567025935590       -5.4875288344300124                0           0           0
         118           1  0.86933700000000003       -5.5482852431516338        3.5923076118881507       -5.4417228989443664                0           0           0
         119           1   1.4795579999999999       -4.3739369469009368        3.5607592288576253       -5.4167376158453875                0           0           0
         120           1   1.1486650000000000       -3.1829100303145594        4.3846711866526977       -5.0836996463756323                0           0           0
         121           1  0.75789499999999999       -2.3899457112277975        3.7428225477459112       -4.9429501632830011                0           0           0
         122           1  0.80026200000000003       -2.3199235559108931        4.4447878277023136       -5.6139748509715135                0           0           0
         123           1  0.84546600000000005       -1.5270231055326908        3.9537065897872932       -5.5370626711192781                0           0           0
         124           1  0.74727200000000005       -1.2034964204302518        3.8570275997472745       -4.6766160925253946                0           0           0
         125           1   1.1842509999999999       -1.9072789650784934        4.6017888355779295       -4.6938134442400283                0           0           0
         126           1   1.0372950000000001      -0.65552297511799029        4.5081671977313160       -5.4086469706305254                0           0           0
         127           1  0.75573400000000002       0.26040838510731579        4.1606910441632863       -5.1389972056870077                0           0           0
         128           1  0.90554000000000001        1.2407319281933660        4.0851840104295842       -5.6155998742432152                0           0           0
         129           1  0.73019400000000001        1.8125781316554948        4.2111027330501152       -4.6967520602824884                0           0           0
         130           1   1.1501790000000001        2.1525108405846467        3.5472866117060686       -5.3281574675597811                0           0           0
         131           1   1.0361840000000000        3.0252786745473834        4.2510429768223155       -5.0747323338882975                0           0           0
         132           1  0.78415599999999996        3.9309097089778096        3.9089841517634216       -5.1473889365055472                0           0           0
         133           1  0.84128000000000003        4.6844354349586865        4.1825150565975679       -4.6285676604006518                0           0           0
         134           1   1.3047489999999999        4.8102483349897813        3.6876712442973023       -5.6336708030977389                0           0           0
         135           1  0.87163800000000002       -5.3610336178667106        5.3231938623464075       -5.1982882676156921                0           0           0
         136           1   1.1479109999999999       -4.3634715422796333        4.7506364605022373       -4.6953640045796439                0           0           0
         137           1  0.85967499999999997       -3.6101650239889898        5.3528646702458680       -5.0974174933973053                0           0           0
         138           1  0.80051799999999995       -4.4872063857828106        5.3886867928941644       -5.5124840403161812                0           0           0
         139           1   1.1004989999999999       -2.5935087345464205        5.4380050321028488       -5.4126544437991431                0           0           0
         140           1  0.95438500000000004       -1.5457001495026450        5.6714537888593402       -5.1917625932799618                0           0           0
         141           1  0.98720399999999997      -0.34794992120714063        5.6291517984898771       -5.5600883189481332                0           0           0
         142           1  0.86126300000000000       0.23001062679000928        5.0197349025647870       -4.8430533481486480                0           0           0
         143           1  0.79245800000000000        1.0935428171518096        4.6998439533570302       -4.7883154360378466                0           0           0
         144           1   1.2686580000000001        1.9921049205259536        4.9449982564312531       -5.3277637056884970                0           0           0
         145           1  0.86478800000000000        2.9181571320463515        5.2720932105086487       -4.8583423893593594                0           0           0
         146           1  0.73688299999999995        3.1252765140356527        5.0177184161569368       -5.7061818580616013                0           0           0
         147           1   1.4304490000000001        3.9914155330805734        4.9954188215625912       -4.9112839974227356                0           0           0
         148           1  0.76117100000000004        5.1021739851150727        5.0301011245935090       -5.0210366377230002                0           0           0
         149           1  0.81904200000000005        4.6142807344537129        4.8800317490979790        5.6758017394051752                0           0           0
         150           1  0.74355499999999997       -5.1726555882063048       -5.2329389078797552       -3.7944020358005925                0           0           0
         151           1  0.76271500000000003       -3.8954130787585823       -5.0042826032994494       -3.9566670112464273                0           0           0
         152           1  0.76898400000000000       -2.4450971091145806       -4.7744108196148449       -4.0568201469709777                0           0           0
         153           1   1.0236600000000000       -3.1880065920636249       -5.5602749170532917       -3.5158825052179141                0           0           0
         154           1  0.73077700000000001       -1.4889414821213940       -4.9088361265286800       -3.7583685914005338                0           0           0
         155           1   1.1202880000000000       -2.0119291490684073       -5.6684783040888824       -4.1840557593060925                0           0           0
         156           1  0.76807899999999996       -1.1667754554180831       -5.1589610714343106       -4.4915925772847825                0           0           0
         157           1   1.3321630000000000      -0.46575867907241086       -4.9664565213759957       -3.6767824135467646                0           0           0
         158           1  0.80179999999999996       0.67895192515547897       -4.9383717571062951       -3.9306451128243194                0           0           0
         159           1  0.94373200000000002        1.6341904509793297       -5.0612155965374086       -4.0216698441790344                0           0           0
         160           1  0.95481799999999994        3.1800850286877012       -4.6709563205423859       -4.5091713302326122                0           0           0
         161           1   1.4699640000000000        2.7766600072275960       -5.6392532261199984       -3.8563608534140821                0           0           0
         162           1   1.3309860000000000        4.2527936416440681       -5.0873974720282682       -4.0921777871977110                0           0           0
         163           1   1.1672389999999999        5.5698808324560662       -5.5085914853170399       -4.4616283136491912                0           0           0
         164           1  0.96901499999999996       -5.4406741884883294       -4.4047640051174506       -4.4210883514492929                0           0           0
         165           1   1.1382319999999999       -4.6424827447919856       -4.3902112493791243       -3.6091297875330528                0           0           0
         166           1   1.0295930000000000       -5.6922710399799614       -3.7212174231635191       -3.5813609288076536                0           0           0
         167           1  0.75638000000000005       -4.0876500112853593       -3.5678797333610657       -3.8309373999719694                0           0           0
         168           1   1.4976440000000000       -3.2433751859642599       -4.2036666394838020       -3.6128029895616165                0           0           0
         169           1   1.3677140000000001       -1.7334159092251484       -4.0050486835471206       -4.2371428311460040                0           0           0
         170           1  0.87362600000000001      -0.74028002003118587       -3.9571958303361612       -4.7319100664848923                0           0           0
         171           1  0.77448300000000003      -0.48033207129174738       -3.9232174597280070       -3.6420478770344618                0           0           0
         172           1   1.1426689999999999       0.20732927518191424       -4.1821756846856175       -4.4287786859772487                0           0           0
         173           1   1.6053649999999999        1.3806906311244456       -3.8462039196458466       -3.7749129525025422                0           0           0
         174           1  0.81254700000000002        2.3905334224762704       -4.4061197925938096       -4.0160351951596507                0           0           0
         175           1   1.5251770000000000        2.8578889757379820       -3.4450065675905375       -4.4863941567322474                0           0           0
         176           1  0.90739599999999998        3.9001642710211666       -3.9267577107026739       -4.1838518651398307                0           0           0
         177           1  0.91723800000000000        3.4724732530488858       -3.2948982558770470       -3.4593529689094549                0           0           0
         178           1  0.98055700000000001        4.9377028832539001       -4.1307330246813159       -4.2323755685638220                0           0           0
         179           1   1.4378010000000001       -4.9162325849738373       -3.2699780210052416       -4.4125558236039168                0           0           0