LAMMPS data file via write_data, version 17 Nov 2016, timestep = 0
      
  1500 atoms
      
1 atom types
  -5.7235712129999996        5.7235712129999996      xlo xhi
  -5.7235712129999996        5.7235712129999996      ylo yhi
  -5.7235712129999996        5.7235712129999996      zlo zhi
Masses
      
1 1
      
Pair Coeffs # lj/poly
      
                               1 1.0 1.0 2.025 1.25 0.2
      
Atoms # charge
      
           1           1  0.82965299999999997       -5.5484103577471169       -4.8785582534539245       -5.2656155613268592                0           0           0
           2           1   1.5413479999999999       -4.5823540985353368       -5.2676864422016649       -4.7570107183459367                0           0           0
           3           1  0.86062700000000003       -3.8070017975905293       -4.7631164090937403       -5.4930061019211252                0           0           0
           4           1   1.2325940000000000       -3.1787055796370725       -5.2258742046871056       -4.6632567481155043                0           0           0
           5           1  0.92110899999999996       -2.0869272211603294       -4.8909322919242495       -4.8994429992406729                0           0           0
           6           1   1.5043869999999999       -1.0425831493218150       -4.7170563824543850       -5.4652101216201636                0           0           0
           7           1  0.88103100000000001      -0.20715141096456158       -5.1780747964217237       -4.7492932441679541                0           0           0
           8           1  0.92227999999999999       0.29129656214535959       -4.6640532506304329       -5.4654521369390725                0           0           0
           9           1   1.5129459999999999       0.93645936687652753       -5.5161088771757418       -4.9734434030376296                0           0           0
          10           1  0.87097899999999995        2.1175394634125935       -5.5709922030519241       -4.7667645832413372                0           0           0
          11           1  0.82823300000000000        1.9395274342514615       -5.3884017646524871       -5.6914622812593896                0           0           0
          12           1   1.3333429999999999        3.0379370088514612       -5.3157592066365957       -5.5215657280475821                0           0           0
          13           1  0.81986499999999995        4.1276112067579600       -5.3007717258452880       -5.3194142412673813                0           0           0
          14           1  0.74748000000000003        3.5271867624937467       -5.5403669648742380       -4.6378889311130269                0           0           0
          15           1  0.86770400000000003        4.9214024106547427       -4.8162008197421873       -4.9784352626536883                0           0           0
          16           1  0.73948999999999998        4.6902714190391599       -5.6947438958802010       -4.7957638655772463                0           0           0
          17           1   1.1174949999999999       -4.8094076337381422       -4.1486920336130515       -5.5316805743538291                0           0           0
          18           1   1.0167780000000000       -4.0250559624515176       -4.1307306446524539       -4.6501885322196870                0           0           0
          19           1   1.0699300000000000       -2.8731018572527742       -4.0589057363041645       -4.8567279184843866                0           0           0
          20           1  0.76943799999999996       -1.9744886541389870       -4.0772623530962822       -5.3011520487189010                0           0           0
          21           1   1.0829869999999999      -0.23733193027977606       -3.7543422806963820       -5.6620614724009695                0           0           0
          22           1   1.3859269999999999       0.97934322900316584       -3.6850493031584901       -5.3573966932348149                0           0           0
          23           1  0.77240699999999995        1.0838662229470852       -4.4959066073948817       -4.6483445713121752                0           0           0
          24           1   1.1917739999999999        2.0243430692708122       -4.5343436863505175       -4.9980170179290972                0           0           0
          25           1  0.76583000000000001        1.8111508272744814       -3.5339775886454277       -4.7328505822118201                0           0           0
          26           1  0.97774899999999998        2.1660847044270222       -3.5634152650788908       -5.6198673939903729                0           0           0
          27           1  0.83108000000000004        2.9335972957044376       -4.1978417949387934       -5.3724642007057595                0           0           0
          28           1   1.2215430000000000        3.9893998227706202       -4.2694148905414666       -5.2298322513113460                0           0           0
          29           1   1.3806490000000000        5.3872152879723263       -3.8276657910395224       -5.3273881803103125                0           0           0
          30           1   1.0400879999999999       -5.1714448273767255       -2.9685436372202121       -5.6310396785850640                0           0           0
          31           1  0.77126099999999997       -4.2918789525826044       -3.2861112040662261       -5.2667322945957888                0           0           0
          32           1  0.92384800000000000       -4.2980327297060006       -2.3846433182667321       -4.9393216224960348                0           0           0
          33           1  0.88862900000000000       -2.3291774136167378       -3.1323495297475761       -4.8738990219675706                0           0           0
          34           1  0.86158199999999996       -3.0716313945956908       -2.8359667790540257       -5.5425763936869581                0           0           0
          35           1   1.1209890000000000       -1.3105660261852945       -3.3538943382302513       -5.2637859519519248                0           0           0
          36           1   1.2420370000000001      -0.20244676976873066       -2.9250629978607545       -4.7202842532250813                0           0           0
          37           1  0.88274100000000000       -1.0394354336320930       -2.3270478437126432       -5.1681993507685089                0           0           0
          38           1   1.0668899999999999       0.70277438412012661       -2.4480794661342267       -5.4165715243159918                0           0           0
          39           1   1.1892499999999999        1.8736994646039369       -2.5759256832753645       -5.0896474770689819                0           0           0
          40           1  0.78319600000000000        2.8208349353186630       -2.8157421840835517       -5.3731316857972073                0           0           0
          41           1  0.77194799999999997        2.7221654597061828       -2.2977770528137116       -4.5340240968247709                0           0           0
          42           1  0.74873199999999995        3.6758763880891099       -3.3126234277531772       -5.1782856745868262                0           0           0
          43           1   1.0263439999999999        4.5187572953907491       -3.2071897759898773       -4.7476882669323413                0           0           0
          44           1  0.81308199999999997        4.5541705446374330       -2.4897081281207010       -5.4181969196554665                0           0           0
          45           1   1.1161060000000000        3.6429788110604822       -2.3661133886611552       -4.9661206128049900                0           0           0
          46           1   1.2125560000000000        5.4657411094135782       -2.4226672341364273       -4.9160817538201229                0           0           0
          47           1  0.74192100000000005       -5.0466102591345514       -2.0630290963802977       -5.3303046238665575                0           0           0
          48           1  0.91800800000000005       -4.1426451447191566       -1.5496297267980701       -5.5034446249127722                0           0           0
          49           1  0.83222700000000005       -3.2280538483476175       -1.9494144775015494       -5.2768221038924219                0           0           0
          50           1   1.0095200000000000       -2.5294352844059178       -1.2215604719200313       -4.8887584848485748                0           0           0
          51           1   1.4893410000000000       -2.1333038402726556       -2.1924420183959077       -5.5800893074910913                0           0           0
          52           1   1.2179240000000000       -1.3402385581189264       -1.3189262858115063       -4.7723634553684491                0           0           0
          53           1   1.0644769999999999      -0.21621494247764250       -1.6523903646265738       -5.2179720350530792                0           0           0
          54           1   1.3780330000000001       0.97139866205229097       -1.2739155740574413       -5.0293144237322291                0           0           0
          55           1   1.0451729999999999        2.1548204834476037       -1.4300836618377639       -4.8209158585934047                0           0           0
          56           1  0.79520100000000005        3.6401693835172875       -1.3743303871324528       -5.2478085594817738                0           0           0
          57           1   1.0204660000000001        4.4303160667399908       -1.5928036065683919       -4.6008020171787738                0           0           0
          58           1  0.80856499999999998        5.3333303102306910       -1.3791560941635534       -5.0186585263866164                0           0           0
          59           1   1.3538969999999999       -5.0581907140017819       -1.0772089188236817       -4.9880399648099463                0           0           0
          60           1  0.75854699999999997       -4.0643801563195687      -0.67688026223803632       -5.1864350017038410                0           0           0
          61           1  0.73175199999999996       -2.4346288249087715      -0.42974656134418332       -5.3700129731489987                0           0           0
          62           1   1.0328729999999999       -3.2266079069790812      -0.31957230786554813       -4.8634466384736337                0           0           0
          63           1  0.75083299999999997       -1.6066712851948477      -0.29543821303983453       -5.2718312982388982                0           0           0
          64           1  0.82179500000000005       -1.8887292732196759       -1.0761671680540186       -5.6625645494539683                0           0           0
          65           1  0.90665300000000004      -9.06322680604798592E-003 -0.65476360584315874       -4.8685868595720008                0           0           0
          66           1  0.88653700000000002      -0.93731751697737931      -0.30133294024371349       -4.6200029776690474                0           0           0
          67           1   1.1960150000000001       0.61296392609950701      -5.77014697166493562E-002  -5.5110655025021194                0           0           0
          68           1   1.0855290000000000        1.7613772657297728      -0.25757044101771420       -4.9772275029303366                0           0           0
          69           1  0.97821599999999997        2.8743215893575407      -0.73710044163830091       -5.2584977928038805                0           0           0
          70           1   1.4363210000000000        3.8769978859923064      -0.46828016518953941       -4.6864658313164149                0           0           0
          71           1   1.1656560000000000        5.2173957126775683      -0.35753115783728440       -4.9080827464415568                0           0           0
          72           1   1.0241950000000000       -5.1402094146838397       5.86592224567628051E-002  -5.4449757225041822                0           0           0
          73           1  0.83424600000000004       -4.6093587690187139       0.76720492777053728       -4.9664267634510635                0           0           0
          74           1   1.2242780000000000       -5.7175264060706645       0.90367439333338062       -4.8399223411637884                0           0           0
          75           1   1.2615920000000000       -3.9359357572466092       0.26593005436479533       -5.6901921749748947                0           0           0
          76           1  0.96946900000000003       -2.7345697853409878       0.42604051239787921       -5.5148166603671669                0           0           0
          77           1   1.0105480000000000       -3.3803682445410637       0.86018151251815311       -4.7529836306753586                0           0           0
          78           1   1.1696240000000000       -1.6368294015286837       0.71700636435669640       -5.3780071535760055                0           0           0
          79           1  0.91265600000000002       -2.2974496612888391        1.0241589583725492       -4.5857540472257643                0           0           0
          80           1  0.77751099999999995      -0.66412459240889277       0.45509500346463216       -5.3579718473081055                0           0           0
          81           1  0.88239800000000002       0.43183438138785935        1.0320298685888769       -5.3369408591981733                0           0           0
          82           1  0.79924200000000001        1.0762449816996709       0.44226950042301461       -4.6743685874354179                0           0           0
          83           1   1.1011640000000000        1.4528981919807356       0.81812446463005450       -5.6083157189164492                0           0           0
          84           1   1.4763390000000001        2.1776012641220488       0.88735658956176877       -4.5395107861331443                0           0           0
          85           1  0.85063500000000003        2.9564903580845705       0.18524153770811491       -4.8865404101380854                0           0           0
          86           1  0.83979999999999999        3.6401796202522139       0.21201823994469038       -5.5427774407399237                0           0           0
          87           1   1.1119710000000000        4.4777276613722758       0.66349947688040611       -5.0033352525016737                0           0           0
          88           1  0.92940100000000003       -5.4539631285350616        1.9613248344725571       -5.1001009312915357                0           0           0
          89           1  0.98624599999999996       -4.6148549021626364        2.3588627761253953       -5.6284145007966782                0           0           0
          90           1  0.88377099999999997       -3.8544290666193883        1.4260060716223855       -5.5102143065509335                0           0           0
          91           1   1.4289920000000000       -4.4176202482308629        1.7670921119740282       -4.5667902460107612                0           0           0
          92           1   1.2863240000000000       -2.6677430192465925        1.6206301033144461       -5.4941105916202719                0           0           0
          93           1  0.83280200000000004       -3.2630602104728328        1.8639717549331278       -4.5947131158056944                0           0           0
          94           1  0.91532000000000002       -1.5852696199225536        1.8529014536150488       -5.2108260677746969                0           0           0
          95           1   1.0549850000000001      -0.61716246064344027        1.4261733376470440       -5.3320537742134873                0           0           0
          96           1   1.4844250000000001       0.40773741718310585        2.1837259031218910       -5.4342826047513224                0           0           0
          97           1  0.86414400000000002        1.4788126475030499        1.8077937906400834       -5.3070962416164287                0           0           0
          98           1   1.3125690000000001        2.4438773437349077        2.2785765253884591       -5.1474112391286146                0           0           0
          99           1  0.82318199999999997        2.3792713029483217        1.2578172618163022       -5.6275667439666393                0           0           0
         100           1   1.2526790000000001        3.3995648560831029        1.2344906450608706       -5.3650010848479681                0           0           0
         101           1   1.3715560000000000        4.6948836759441743        1.9458224636732124       -5.2171697594788418                0           0           0
         102           1   1.1018300000000001       -5.2689898045188936        2.9249278048341196       -4.6601368556670026                0           0           0
         103           1   1.0932630000000001       -3.5658954769591098        2.4626864135485143       -5.3476521588169952                0           0           0
         104           1  0.91189900000000002       -4.1185226243342976        2.8866021067500505       -4.5171173066823398                0           0           0
         105           1  0.73728300000000002       -2.6088726203990524        2.6428849752775907       -5.2640163953009775                0           0           0
         106           1  0.79696199999999995       -3.3093402844540409        3.4043977076855150       -5.2573754163849218                0           0           0
         107           1   1.2884510000000000       -1.6717834364302941        2.9542517414832439       -4.9520460055184099                0           0           0
         108           1  0.90628100000000000      -0.72484438082023672        2.3939433597026678       -4.7438535311456178                0           0           0
         109           1   1.2439519999999999      -0.38171158147472983        3.3543104579326020       -5.1902788824495607                0           0           0
         110           1  0.85372000000000003      -0.79022210989460806        2.4276824675380784       -5.7191448139985273                0           0           0
         111           1  0.79320299999999999       0.61109567232742013        3.2935861908017330       -5.5601049280076911                0           0           0
         112           1  0.83657099999999995        1.1789644624604554        2.4632074437215508       -4.6493680855771284                0           0           0
         113           1  0.79898800000000003        2.9594577677685336        3.1893086471472003       -4.7822535294770443                0           0           0
         114           1  0.97961900000000002        3.5971990948012103        2.3814174995809658       -4.7892273768356013                0           0           0
         115           1  0.80490099999999998        4.3409800746323040        2.9638662481594267       -5.0327330110528372                0           0           0
         116           1  0.76785300000000001        5.2771652335784740        2.8460065134634718       -5.1969585219317178                0           0           0
         117           1  0.78729899999999997       -4.9495729262347981        4.4975830002066726       -5.4844501935154026                0           0           0
         118           1  0.86933700000000003       -5.5471394469733930        3.5930850354104980       -5.4426749543020092                0           0           0
         119           1   1.4795579999999999       -4.3740110141919937        3.5634552885300117       -5.4205872065388379                0           0           0
         120           1   1.1486650000000000       -3.1675767497706180        4.3807240703691512       -5.0942886706594370                0           0           0
         121           1  0.75789499999999999       -2.3791223868934566        3.7417354852134466       -4.9441547949710101                0           0           0
         122           1  0.80026200000000003       -2.3012444133321139        4.4594098577742507       -5.6351163222198819                0           0           0
         123           1  0.84546600000000005       -1.5148853908539115        3.9645129439314406       -5.5384485162592645                0           0           0
         124           1  0.74727200000000005       -1.1986597649623407        3.8592527167045674       -4.6761014615348779                0           0           0
         125           1   1.1842509999999999       -1.9039329147159423        4.6031144579336249       -4.7020546601331166                0           0           0
         126           1   1.0372950000000001      -0.63792982119743158        4.5064261366988738       -5.4100133889017759                0           0           0
         127           1  0.75573400000000002       0.28364325660548850        4.1541109787966786       -5.1198548370597097                0           0           0
         128           1  0.90554000000000001        1.2315605015006907        4.0971985425881172       -5.5696829286344007                0           0           0
         129           1  0.73019400000000001        1.8168629135403247        4.2086199774147630       -4.6915672963936252                0           0           0
         130           1   1.1501790000000001        2.1514772233030985        3.5478306233439554       -5.3258700432455237                0           0           0
         131           1   1.0361840000000000        3.0259924805787097        4.2499332884227776       -5.0723382376633666                0           0           0
         132           1  0.78415599999999996        3.9328782027763314        3.9120500413835444       -5.1476274932463522                0           0           0
         133           1  0.84128000000000003        4.6869100438386972        4.1851697547454272       -4.6287845913806365                0           0           0
         134           1   1.3047489999999999        4.8121943222871622        3.6906354192349529       -5.6338107282109737                0           0           0
         135           1  0.87163800000000002       -5.3636296585626422        5.3278562960680276       -5.1951841589788872                0           0           0
         136           1   1.1479109999999999       -4.3570907862153803        4.7485352225073125       -4.6937176079708660                0           0           0
         137           1  0.85967499999999997       -3.6018625036836180        5.3403104358138513       -5.1012302707436623                0           0           0
         138           1  0.80051799999999995       -4.4874659997065214        5.3876489859220751       -5.5078144472586548                0           0           0
         139           1   1.1004989999999999       -2.5823539548529681        5.4404727346039916       -5.4193621722160774                0           0           0
         140           1  0.95438500000000004       -1.5375202392445804        5.6911866339016530       -5.1938034619391491                0           0           0
         141           1  0.98720399999999997      -0.38310075042443792        5.6331533760322241       -5.5803409912141362                0           0           0
         142           1  0.86126300000000000       0.23456555820770930        5.0140047031902899       -4.8296316002876827                0           0           0
         143           1  0.79245800000000000        1.0946070572735627        4.6897723377196421       -4.7691463165736989                0           0           0
         144           1   1.2686580000000001        1.9899879834661185        4.9487190391255815       -5.3156300848902118                0           0           0
         145           1  0.86478800000000000        2.9188224462920491        5.2731309622934166       -4.8569779346638242                0           0           0
         146           1  0.73688299999999995        3.1448301993164804        5.0125363803131453       -5.6959123946652683                0           0           0
         147           1   1.4304490000000001        3.9918766985873297        4.9958124372107022       -4.9149141187813070                0           0           0
         148           1  0.76117100000000004        5.1021752620834473        5.0305550827945673       -5.0206579472696093                0           0           0
         149           1  0.81904200000000005        4.6153238605167957        4.8807446122385993        5.6739473140095988                0           0           0
         150           1  0.74355499999999997       -5.1780842029993961       -5.2330438035456073       -3.7810609998457192                0           0           0
         151           1  0.76271500000000003       -3.9003651362260001       -5.0058001983570222       -3.9595006452330832                0           0           0
         152           1  0.76898400000000000       -2.4816904605862948       -4.8032905290885193       -4.0469274259934354                0           0           0
         153           1   1.0236600000000000       -3.1860075158940080       -5.5495674480344510       -3.5184262809622386                0           0           0
         154           1  0.73077700000000001       -1.4876121575565655       -4.8797782763180395       -3.7869042813702620                0           0           0
         155           1   1.1202880000000000       -2.0080892439918347       -5.6698609242782583       -4.1897828064886005                0           0           0
         156           1  0.76807899999999996       -1.1605682440371616       -5.1777475935816977       -4.4992417058955425                0           0           0
         157           1   1.3321630000000000      -0.45009383002473502       -4.9771442637935337       -3.6651883676698302                0           0           0
         158           1  0.80179999999999996       0.65412296055707131       -4.9198327413932255       -3.9455032127034904                0           0           0
         159           1  0.94373200000000002        1.6134212024513248       -5.0575985829318508       -4.0283105145113227                0           0           0
         160           1  0.95481799999999994        3.1783416595046479       -4.6727668142165237       -4.5018595845669598                0           0           0
         161           1   1.4699640000000000        2.7752448772380500       -5.6436663650016303       -3.8550340602496105                0           0           0
         162           1   1.3309860000000000        4.2512681039744873       -5.0881521260493923       -4.0868460296233788                0           0           0
         163           1   1.1672389999999999        5.5677273665691267       -5.5024797837268844       -4.4556046410391650                0           0           0
         164           1  0.96901499999999996       -5.4444700354735689       -4.3984550396539817       -4.4218589550026532                0           0           0
         165           1   1.1382319999999999       -4.6482470152032089       -4.3862930186373923       -3.6102329607989438                0           0           0
         166           1   1.0295930000000000       -5.6962433264180756       -3.7170800369615571       -3.5820488941540223                0           0           0
         167           1  0.75638000000000005       -4.1008236340727144       -3.5517657946883885       -3.8350507963508651                0           0           0
         168           1   1.4976440000000000       -3.2650443875468405       -4.1963542288864231       -3.6203487229399891                0           0           0
         169           1   1.3677140000000001       -1.8460889868885504       -3.9711067813477547       -4.1979607772060827                0           0           0
         170           1  0.87362600000000001      -0.84438466630590714       -4.2990004200066121       -4.4458879266221087                0           0           0
         171           1  0.77448300000000003      -0.48928113882294877       -3.9089875857539509       -3.6622669074652880                0           0           0
         172           1   1.1426689999999999       0.17463817226069445       -4.1518887040059287       -4.4588091951963982                0           0           0
         173           1   1.6053649999999999        1.3711406867808531       -3.8467929143339203       -3.7885357712258978                0           0           0
         174           1  0.81254700000000002        2.3826978057043746       -4.4090180980209830       -4.0195847211698039                0           0           0
         175           1   1.5251770000000000        2.8615357340443204       -3.4502496784430017       -4.4868499154637718                0           0           0
         176           1  0.90739599999999998        3.8977855473625382       -3.9345874988685976       -4.1679214830264151                0           0           0
         177           1  0.91723800000000000        3.4621748296790429       -3.3052996911244374       -3.4498738175994368                0           0           0
         178           1  0.98055700000000001        4.9343230689500501       -4.1328058278147051       -4.2292715776087970                0           0           0
         179           1   1.4378010000000001       -4.9325922877821453       -3.2558883860273307       -4.4114466825607694                0           0           0