LAMMPS data file via write_data, version 17 Nov 2016, timestep = 0
      
  1500 atoms
      
1 atom types
  -5.7235712129999996        5.7235712129999996      xlo xhi
  -5.7235712129999996        5.7235712129999996      ylo yhi
  -5.7235712129999996        5.7235712129999996      zlo zhi
Masses
      
1 1
      
Pair Coeffs # lj/poly
      
                               1 1.0 1.0 2.025 1.25 0.2
      
Atoms # charge
      
           1           1  0.82965299999999997       -5.5511778822465434       -4.8791079573072285       -5.2653067194524406                0           0           0
           2           1   1.5413479999999999       -4.5839223462810779       -5.2688166914872552       -4.7566873541016976                0           0           0
           3           1  0.86062700000000003       -3.8072585281347506       -4.7622799997687091       -5.4909491373660844                0           0           0
           4           1   1.2325940000000000       -3.1810266514498764       -5.2222581461874436       -4.6606774153693724                0           0           0
           5           1  0.92110899999999996       -2.0840584011934657       -4.8862759139257674       -4.8943494036603674                0           0           0
           6           1   1.5043869999999999       -1.0419442905113714       -4.7221803351534799       -5.4695677622507457                0           0           0
           7           1  0.88103100000000001      -0.20946543110375160       -5.1652061099827851       -4.7393929911729833                0           0           0
           8           1  0.92227999999999999       0.28985912216909782       -4.6685093906719395       -5.4679430846119930                0           0           0
           9           1   1.5129459999999999       0.92918369988938920       -5.5273401917314997       -4.9796708292267136                0           0           0
          10           1  0.87097899999999995        2.1102675160061333       -5.5806656202926828       -4.7725844738143239                0           0           0
          11           1  0.82823300000000000        1.9323167060845474       -5.3962564364138705       -5.6973517419423674                0           0           0
          12           1   1.3333429999999999        3.0260253852361423       -5.3278328386929799       -5.5317373403350301                0           0           0
          13           1  0.81986499999999995        4.1184512072913861       -5.3078544892584558       -5.3216136906786318                0           0           0
          14           1  0.74748000000000003        3.5221245552137166       -5.5417569253874106       -4.6450086033293116                0           0           0
          15           1  0.86770400000000003        4.9099272820837925       -4.8166478125206806       -4.9830914816910639                0           0           0
          16           1  0.73948999999999998        4.6875095931142567       -5.6948982192962134       -4.7979881728965843                0           0           0
          17           1   1.1174949999999999       -4.8115735342454178       -4.1471795056446705       -5.5274092014199212                0           0           0
          18           1   1.0167780000000000       -4.0283527623602016       -4.1289040470031786       -4.6480746990644075                0           0           0
          19           1   1.0699300000000000       -2.8733416426476803       -4.0564810200604633       -4.8556093059500363                0           0           0
          20           1  0.76943799999999996       -1.9737237276383319       -4.0762175731837171       -5.3005674124483262                0           0           0
          21           1   1.0829869999999999      -0.23811390300045687       -3.7567079284310232       -5.6618498895306608                0           0           0
          22           1   1.3859269999999999       0.97783073269159004       -3.6852955207422000       -5.3573880364104332                0           0           0
          23           1  0.77240699999999995        1.0757535460815877       -4.5047568952283985       -4.6540691465538124                0           0           0
          24           1   1.1917739999999999        2.0186899738930597       -4.5412282508897395       -4.9983774199373228                0           0           0
          25           1  0.76583000000000001        1.8119364672756806       -3.5374141513405841       -4.7328659106686413                0           0           0
          26           1  0.97774899999999998        2.1631728831938517       -3.5646840787151288       -5.6187720022083472                0           0           0
          27           1  0.83108000000000004        2.9229939888384102       -4.2022618987610389       -5.3763833505756393                0           0           0
          28           1   1.2215430000000000        3.9746019439479987       -4.2759059424760073       -5.2394111927347256                0           0           0
          29           1   1.3806490000000000        5.3882017598805731       -3.8325835050638575       -5.3267755282372882                0           0           0
          30           1   1.0400879999999999       -5.1876333963938084       -2.9549408216565598       -5.6214124817765789                0           0           0
          31           1  0.77126099999999997       -4.3003997938330230       -3.2821808369128451       -5.2677910331552917                0           0           0
          32           1  0.92384800000000000       -4.3020895637280585       -2.3786336396563810       -4.9366445343667902                0           0           0
          33           1  0.88862900000000000       -2.3296426981823029       -3.1306799085119033       -4.8725354914722843                0           0           0
          34           1  0.86158199999999996       -3.0730151587191488       -2.8338810007071076       -5.5402930662991219                0           0           0
          35           1   1.1209890000000000       -1.3096777984792105       -3.3548183913052720       -5.2619587357126480                0           0           0
          36           1   1.2420370000000001      -0.20087477790107044       -2.9243354505485586       -4.7207664791696606                0           0           0
          37           1  0.88274100000000000       -1.0386789447651914       -2.3274831197694215       -5.1674415434962855                0           0           0
          38           1   1.0668899999999999       0.70729270460969840       -2.4479980257308069       -5.4153306310781746                0           0           0
          39           1   1.1892499999999999        1.8810289998070129       -2.5778433659001965       -5.0876507758867513                0           0           0
          40           1  0.78319600000000000        2.8359237679497706       -2.8158767180271007       -5.3692394164879182                0           0           0
          41           1  0.77194799999999997        2.7312612667327514       -2.3018652350431559       -4.5310598992906002                0           0           0
          42           1  0.74873199999999995        3.6630869334156966       -3.3030635291692705       -5.1938746847866089                0           0           0
          43           1   1.0263439999999999        4.5021869576886111       -3.2489005303777660       -4.7630100346707112                0           0           0
          44           1  0.81308199999999997        4.5398221155017797       -2.5165432279627771       -5.4285822538028787                0           0           0
          45           1   1.1161060000000000        3.6568504386358143       -2.3543970319019509       -4.9582937737117483                0           0           0
          46           1   1.2125560000000000        5.4139067335295028       -2.4163557281338592       -4.8900887396785597                0           0           0
          47           1  0.74192100000000005       -5.0828845934711104       -2.0702526263045375       -5.2727586917951630                0           0           0
          48           1  0.91800800000000005       -4.1368702695416832       -1.5478516070517934       -5.5015746395940841                0           0           0
          49           1  0.83222700000000005       -3.2250511810495590       -1.9468579429921240       -5.2741290385644906                0           0           0
          50           1   1.0095200000000000       -2.5255372729134993       -1.2206450618480353       -4.8871239712784620                0           0           0
          51           1   1.4893410000000000       -2.1331826086315027       -2.1914310011953133       -5.5789132201687197                0           0           0
          52           1   1.2179240000000000       -1.3376641744227582       -1.3184917569379824       -4.7707215653439601                0           0           0
          53           1   1.0644769999999999      -0.21408294044678922       -1.6532372720102764       -5.2170728926109549                0           0           0
          54           1   1.3780330000000001       0.97317002444711775       -1.2739085282129441       -5.0274765792758949                0           0           0
          55           1   1.0451729999999999        2.1566620413771531       -1.4297168491844401       -4.8201601927859130                0           0           0
          56           1  0.79520100000000005        3.6432072914206710       -1.3674181560377399       -5.2479048031318429                0           0           0
          57           1   1.0204660000000001        4.4580248461125827       -1.5628592330415607       -4.6074210228231429                0           0           0
          58           1  0.80856499999999998        5.3542567083123895       -1.3710151826944967       -5.0299757227677580                0           0           0
          59           1   1.3538969999999999       -5.0451722546747426       -1.0709837016216808       -4.9825226130061706                0           0           0
          60           1  0.75854699999999997       -4.0568969270587907      -0.67430952075913009       -5.1850487035112538                0           0           0
          61           1  0.73175199999999996       -2.4316103038855239      -0.42859256461183026       -5.3676829422487966                0           0           0
          62           1   1.0328729999999999       -3.2217895836429533      -0.31814001945455583       -4.8586840882676512                0           0           0
          63           1  0.75083299999999997       -1.6041931357745796      -0.29534922303710509       -5.2690981465308990                0           0           0
          64           1  0.82179500000000005       -1.8859415497247851       -1.0753707155538459       -5.6616619030012600                0           0           0
          65           1  0.90665300000000004      -7.63690338716660477E-003 -0.65500697799979424       -4.8672764618446767                0           0           0
          66           1  0.88653700000000002      -0.93508621991145091      -0.30026616886799218       -4.6178222214209228                0           0           0
          67           1   1.1960150000000001       0.61564448259288973      -5.80982896817010541E-002  -5.5086829702883717                0           0           0
          68           1   1.0855290000000000        1.7639015717789226      -0.25753530570541372       -4.9772953988697317                0           0           0
          69           1  0.97821599999999997        2.8756131176136535      -0.73620257399190514       -5.2575547056027716                0           0           0
          70           1   1.4363210000000000        3.8762100331032254      -0.46389202451612555       -4.6836358168702796                0           0           0
          71           1   1.1656560000000000        5.2197093169320219      -0.35622952105537653       -4.9013323488907456                0           0           0
          72           1   1.0241950000000000       -5.1424596304125849       5.85824018127825141E-002  -5.4454310392614076                0           0           0
          73           1  0.83424600000000004       -4.6110132777441839       0.76611868385129345       -4.9651627514122794                0           0           0
          74           1   1.2242780000000000       -5.7176795203999697       0.90260817672407612       -4.8376938137348668                0           0           0
          75           1   1.2615920000000000       -3.9355784791885458       0.26634188011420790       -5.6879720787092412                0           0           0
          76           1  0.96946900000000003       -2.7361320487124616       0.42530156675249930       -5.5136068913753817                0           0           0
          77           1   1.0105480000000000       -3.3818590804724766       0.86078990550583612       -4.7504125494632561                0           0           0
          78           1   1.1696240000000000       -1.6392152538982439       0.71677583929912370       -5.3733508600988236                0           0           0
          79           1  0.91265600000000002       -2.2986495450008739        1.0230024946626513       -4.5782376510320697                0           0           0
          80           1  0.77751099999999995      -0.66699206154973112       0.45432288518700581       -5.3561603638399138                0           0           0
          81           1  0.88239800000000002       0.43414862132865295        1.0343859738381669       -5.3363330503243649                0           0           0
          82           1  0.79924200000000001        1.0784851478360968       0.44381823506503437       -4.6722556889403126                0           0           0
          83           1   1.1011640000000000        1.4551378917046041       0.81771238820553460       -5.6068439887831936                0           0           0
          84           1   1.4763390000000001        2.1775820790806604       0.88778273497557603       -4.5380012476667098                0           0           0
          85           1  0.85063500000000003        2.9577652999703670       0.18785483965378180       -4.8872656405153290                0           0           0
          86           1  0.83979999999999999        3.6448342601943828       0.20981169916217901       -5.5426794881510997                0           0           0
          87           1   1.1119710000000000        4.4790743189129980       0.66385046306578577       -5.0012515979127325                0           0           0
          88           1  0.92940100000000003       -5.4560634394522349        1.9593989149767310       -5.1004812673377202                0           0           0
          89           1  0.98624599999999996       -4.6157848070571461        2.3576850187258174       -5.6281752127388760                0           0           0
          90           1  0.88377099999999997       -3.8562452759315651        1.4250458086997648       -5.5091452444366258                0           0           0
          91           1   1.4289920000000000       -4.4190192191616315        1.7669591599498933       -4.5665053991290092                0           0           0
          92           1   1.2863240000000000       -2.6712993566621530        1.6172444525401319       -5.4864709448833322                0           0           0
          93           1  0.83280200000000004       -3.2635258133388469        1.8642847764883195       -4.5864669868212395                0           0           0
          94           1  0.91532000000000002       -1.5862485157199595        1.8510333136582311       -5.2049389961430492                0           0           0
          95           1   1.0549850000000001      -0.61638521383564093        1.4253744847497689       -5.3291170388468645                0           0           0
          96           1   1.4844250000000001       0.40738727773619487        2.1874140479498596       -5.4382774278636461                0           0           0
          97           1  0.86414400000000002        1.4771470407126692        1.8102798554911059       -5.3063809620130673                0           0           0
          98           1   1.3125690000000001        2.4433590507008116        2.2800523025102706       -5.1472742126681954                0           0           0
          99           1  0.82318199999999997        2.3813688325048172        1.2556385195311135       -5.6227177497763154                0           0           0
         100           1   1.2526790000000001        3.4014517911448827        1.2322130362478658       -5.3637542636668467                0           0           0
         101           1   1.3715560000000000        4.6947172631987595        1.9441654611903569       -5.2160726337766725                0           0           0
         102           1   1.1018300000000001       -5.2699341334067942        2.9220969748223471       -4.6587159282951411                0           0           0
         103           1   1.0932630000000001       -3.5681483828009029        2.4612192976040639       -5.3430346105377566                0           0           0
         104           1  0.91189900000000002       -4.1194878284575953        2.8851618406544581       -4.5122906482482898                0           0           0
         105           1  0.73728300000000002       -2.6132465238827334        2.6417848442992149       -5.2589926411949977                0           0           0
         106           1  0.79696199999999995       -3.3073025539239986        3.4025201583434175       -5.2511055269378408                0           0           0
         107           1   1.2884510000000000       -1.6769471647809713        2.9536352026578889       -4.9466302835475480                0           0           0
         108           1  0.90628100000000000      -0.72794492898927832        2.3949535962662640       -4.7448651240429207                0           0           0
         109           1   1.2439519999999999      -0.38533414185955106        3.3527653057052209       -5.2023806717494594                0           0           0
         110           1  0.85372000000000003      -0.78064242996227939        2.4243628657407985       -5.7212890641208549                0           0           0
         111           1  0.79320299999999999       0.61276362423251918        3.3017319693793148       -5.6008154743426397                0           0           0
         112           1  0.83657099999999995        1.1750825321104159        2.4680417797684306       -4.6485890733070985                0           0           0
         113           1  0.79898800000000003        2.9614013209295713        3.1896774070726170       -4.7869875641156394                0           0           0
         114           1  0.97961900000000002        3.5962480571406630        2.3821451395623185       -4.7894268469661139                0           0           0
         115           1  0.80490099999999998        4.3411026564290704        2.9623537987989490       -5.0316836159029599                0           0           0
         116           1  0.76785300000000001        5.2774114740865787        2.8443107617897070       -5.1956653727467232                0           0           0
         117           1  0.78729899999999997       -4.9527212056716126        4.4951920535785348       -5.4856579457013330                0           0           0
         118           1  0.86933700000000003       -5.5484678597545267        3.5902092951421150       -5.4407601118031828                0           0           0
         119           1   1.4795579999999999       -4.3740326090382879        3.5621424440477334       -5.4158479417597345                0           0           0
         120           1   1.1486650000000000       -3.1833744740306837        4.3806891873488762       -5.0839507197145171                0           0           0
         121           1  0.75789499999999999       -2.3915432562149221        3.7395571315817655       -4.9450881569359311                0           0           0
         122           1  0.80026200000000003       -2.3211834482224649        4.4438216264104025       -5.6169885371494628                0           0           0
         123           1  0.84546600000000005       -1.5260583761144000        3.9551276215927800       -5.5397971099576671                0           0           0
         124           1  0.74727200000000005       -1.2022235445662828        3.8573339249130516       -4.6790194684443112                0           0           0
         125           1   1.1842509999999999       -1.9096934720019658        4.5976173559284561       -4.6969981154214420                0           0           0
         126           1   1.0372950000000001      -0.65235297561771777        4.5079688074283215       -5.4130223727738285                0           0           0
         127           1  0.75573400000000002       0.26379516502609501        4.1538263192132305       -5.1468026166400511                0           0           0
         128           1  0.90554000000000001        1.2397990923248265        4.0847990895735951       -5.6186799012528388                0           0           0
         129           1  0.73019400000000001        1.8115943577260758        4.2115413848706922       -4.6968244723226311                0           0           0
         130           1   1.1501790000000001        2.1521395810922144        3.5469360721188909       -5.3299210818189486                0           0           0
         131           1   1.0361840000000000        3.0259854181922972        4.2488583642130884       -5.0789344655115451                0           0           0
         132           1  0.78415599999999996        3.9315160551689221        3.9070184727098916       -5.1493575665958051                0           0           0
         133           1  0.84128000000000003        4.6848115464402191        4.1813434394821112       -4.6302523002144760                0           0           0
         134           1   1.3047489999999999        4.8109483755586808        3.6869266370580540       -5.6353955318271476                0           0           0
         135           1  0.87163800000000002       -5.3679356747823279        5.3274213869470781       -5.1922901238804373                0           0           0
         136           1   1.1479109999999999       -4.3655511666150772        4.7519897537369928       -4.6929313433715398                0           0           0
         137           1  0.85967499999999997       -3.6115451267602814        5.3451010673519477       -5.0995329527137505                0           0           0
         138           1  0.80051799999999995       -4.4928877309314448        5.3881203788814833       -5.5096607380381988                0           0           0
         139           1   1.1004989999999999       -2.5939819666052966        5.4352603981312129       -5.4092412626423192                0           0           0
         140           1  0.95438500000000004       -1.5475853619878288        5.6947374069923384       -5.2052531316635662                0           0           0
         141           1  0.98720399999999997      -0.33840699879379521        5.6377954660430873       -5.5519474520075303                0           0           0
         142           1  0.86126300000000000       0.22253649047231239        5.0062036422995213       -4.8436860337745102                0           0           0
         143           1  0.79245800000000000        1.0905755264456696        4.6965021986667601       -4.8025124424261039                0           0           0
         144           1   1.2686580000000001        1.9926795807721591        4.9427022569490298       -5.3316473794088584                0           0           0
         145           1  0.86478800000000000        2.9177608790749066        5.2686473586239426       -4.8613369088617366                0           0           0
         146           1  0.73688299999999995        3.1218783221673583        5.0160519737902387       -5.7103667727437051                0           0           0
         147           1   1.4304490000000001        3.9915286580467839        4.9937133301413805       -4.9129399257440500                0           0           0
         148           1  0.76117100000000004        5.1010316478915012        5.0308372056588446       -5.0206478449689174                0           0           0
         149           1  0.81904200000000005        4.6136078744240621        4.8785090774066493        5.6745886174129136                0           0           0
         150           1  0.74355499999999997       -5.1796539254418166       -5.2294468146795881       -3.7833447622688214                0           0           0
         151           1  0.76271500000000003       -3.9027235369017097       -5.0063100521972332       -3.9574449255351043                0           0           0
         152           1  0.76898400000000000       -2.4816339009075428       -4.8018318951218175       -4.0444620399952242                0           0           0
         153           1   1.0236600000000000       -3.1872560848487255       -5.5531080047042272       -3.5180512734569001                0           0           0
         154           1  0.73077700000000001       -1.4922022275217213       -4.8784285626764401       -3.7886074192412691                0           0           0
         155           1   1.1202880000000000       -2.0177169943444833       -5.6739751032931132       -4.1948462467856249                0           0           0
         156           1  0.76807899999999996       -1.1732421496179253       -5.1770387370106405       -4.5033797120385213                0           0           0
         157           1   1.3321630000000000      -0.45618657562403175       -4.9782211694394682       -3.6627312830805612                0           0           0
         158           1  0.80179999999999996       0.64645390360088317       -4.9238033908204635       -3.9500576359856812                0           0           0
         159           1  0.94373200000000002        1.6062080373838770       -5.0674733775699385       -4.0318313626190960                0           0           0
         160           1  0.95481799999999994        3.1707781679127152       -4.6784217275453539       -4.5083732960947209                0           0           0
         161           1   1.4699640000000000        2.7697314296699798       -5.6453106831694848       -3.8604369861161110                0           0           0
         162           1   1.3309860000000000        4.2458402293867223       -5.0918413824042501       -4.0885932410429051                0           0           0
         163           1   1.1672389999999999        5.5629209505352328       -5.4964498312678138       -4.4554946214000886                0           0           0
         164           1  0.96901499999999996       -5.4392293432355459       -4.3964676120897064       -4.4229106437840411                0           0           0
         165           1   1.1382319999999999       -4.6478420194914811       -4.3848675712151355       -3.6082446811470570                0           0           0
         166           1   1.0295930000000000       -5.6941134136423379       -3.7183500435723178       -3.5812966783269324                0           0           0
         167           1  0.75638000000000005       -4.1052641207362459       -3.5490993803281272       -3.8367710374723458                0           0           0
         168           1   1.4976440000000000       -3.2669331562268105       -4.1952670535840388       -3.6200079511613255                0           0           0
         169           1   1.3677140000000001       -1.8471613297209997       -3.9676118749917042       -4.1948923477727060                0           0           0
         170           1  0.87362600000000001      -0.84838113422491368       -4.3022297330208294       -4.4485350847521330                0           0           0
         171           1  0.77448300000000003      -0.49191966921942321       -3.9104805051535525       -3.6639038864412017                0           0           0
         172           1   1.1426689999999999       0.17061686826331801       -4.1507213985363203       -4.4594690663370882                0           0           0
         173           1   1.6053649999999999        1.3679759181834346       -3.8535540635407148       -3.7924081365783797                0           0           0
         174           1  0.81254700000000002        2.3786700122884188       -4.4128203684875711       -4.0225529282055659                0           0           0
         175           1   1.5251770000000000        2.8638192701845764       -3.4547909538969885       -4.4879393753938972                0           0           0
         176           1  0.90739599999999998        3.8957623957650966       -3.9457281074807398       -4.1696567259043427                0           0           0
         177           1  0.91723800000000000        3.4652429461519620       -3.3082967049229430       -3.4528859361146704                0           0           0
         178           1  0.98055700000000001        4.9382164989748674       -4.1439561810350716       -4.2259018434326672                0           0           0
         179           1   1.4378010000000001       -4.9402611362346889       -3.2481187479875486       -4.4110566715075290                0           0           0