LAMMPS data file via write_data, version 17 Nov 2016, timestep = 0
      
  1500 atoms
      
1 atom types
  -5.7235712129999996        5.7235712129999996      xlo xhi
  -5.7235712129999996        5.7235712129999996      ylo yhi
  -5.7235712129999996        5.7235712129999996      zlo zhi
Masses
      
1 1
      
Pair Coeffs # lj/poly
      
                               1 1.0 1.0 2.025 1.25 0.2
      
Atoms # charge
      
           1           1  0.82965299999999997       -5.5468380765803449       -4.8804944867133910       -5.2643353563489050                0           0           0
           2           1   1.5413479999999999       -4.5777032176338484       -5.2709493968438599       -4.7541876750782723                0           0           0
           3           1  0.86062700000000003       -3.7990712247961818       -4.7688785442272952       -5.4872847172621091                0           0           0
           4           1   1.2325940000000000       -3.1706362517402460       -5.2168951138547781       -4.6511023305650987                0           0           0
           5           1  0.92110899999999996       -2.0806203035674300       -4.9011274164460747       -4.9091239104526352                0           0           0
           6           1   1.5043869999999999       -1.0402485063135876       -4.7534567489153501       -5.4722862066195974                0           0           0
           7           1  0.88103100000000001      -0.20366923629687506       -5.1726738459062380       -4.7416301480565526                0           0           0
           8           1  0.92227999999999999       0.28259759556944797       -4.6679330596752280       -5.4689536207697360                0           0           0
           9           1   1.5129459999999999       0.93331302863449750       -5.5201623650565752       -4.9777704003071941                0           0           0
          10           1  0.87097899999999995        2.1144317788218867       -5.5816177021657882       -4.7735520439839760                0           0           0
          11           1  0.82823300000000000        1.9352650194117604       -5.3970284685354759       -5.6975497985716776                0           0           0
          12           1   1.3333429999999999        3.0294832974521793       -5.3289509235774561       -5.5325176792684934                0           0           0
          13           1  0.81986499999999995        4.1209753942674894       -5.3086423272815022       -5.3202485407085405                0           0           0
          14           1  0.74748000000000003        3.5230945046334519       -5.5422003296844702       -4.6444900894756476                0           0           0
          15           1  0.86770400000000003        4.9131837072115410       -4.8168491445071160       -4.9821460299437277                0           0           0
          16           1  0.73948999999999998        4.6900186535792727       -5.6957011070345072       -4.7970370256986214                0           0           0
          17           1   1.1174949999999999       -4.8042483843037873       -4.1459481409570040       -5.5131980770560558                0           0           0
          18           1   1.0167780000000000       -4.0022711709801548       -4.1405567905750384       -4.6423716785201528                0           0           0
          19           1   1.0699300000000000       -2.8284458717625633       -4.0580115904098539       -4.8331556805166827                0           0           0
          20           1  0.76943799999999996       -1.9509016885779107       -4.0823002214765474       -5.3120504606971561                0           0           0
          21           1   1.0829869999999999      -0.25511588292639420       -3.7673842506585276       -5.6914419025300784                0           0           0
          22           1   1.3859269999999999       0.96576670592985980       -3.6920567042780363       -5.3559060221444525                0           0           0
          23           1  0.77240699999999995        1.1014593705083904       -4.5051265415633388       -4.6427363758792675                0           0           0
          24           1   1.1917739999999999        2.0291004673948079       -4.5413606345215172       -5.0006664255498086                0           0           0
          25           1  0.76583000000000001        1.8056415402106323       -3.5406964666524399       -4.7332279868395029                0           0           0
          26           1  0.97774899999999998        2.1590871847215087       -3.5659932829892598       -5.6186310445336360                0           0           0
          27           1  0.83108000000000004        2.9285135651199585       -4.1989098100408286       -5.3769761459356449                0           0           0
          28           1   1.2215430000000000        3.9778105973876254       -4.2766957922024895       -5.2394181320861577                0           0           0
          29           1   1.3806490000000000        5.3923079413866617       -3.8324327245074645       -5.3251693444559187                0           0           0
          30           1   1.0400879999999999       -5.1886004739652583       -2.9443001331121601       -5.6114042471231045                0           0           0
          31           1  0.77126099999999997       -4.2972163335443287       -3.2814989393992118       -5.2694596369305664                0           0           0
          32           1  0.92384800000000000       -4.2737905700927223       -2.3885224048188829       -4.9296911630632048                0           0           0
          33           1  0.88862900000000000       -2.3170660979034072       -3.1291588242783983       -4.8784806457581862                0           0           0
          34           1  0.86158199999999996       -3.0720086563989772       -2.8335157485537144       -5.5294610020370643                0           0           0
          35           1   1.1209890000000000       -1.3320298272765800       -3.3133783240903703       -5.3220179830777434                0           0           0
          36           1   1.2420370000000001      -0.20711080057045717       -2.9461694800618612       -4.7334997257111899                0           0           0
          37           1  0.88274100000000000       -1.0376353571083889       -2.3145360729096662       -5.1643220407401822                0           0           0
          38           1   1.0668899999999999       0.69964347988519737       -2.4519387390352279       -5.4166701789245426                0           0           0
          39           1   1.1892499999999999        1.8746672694011739       -2.5802829946440320       -5.0905781633931557                0           0           0
          40           1  0.78319600000000000        2.8305117454439284       -2.8155101871035679       -5.3692173277300963                0           0           0
          41           1  0.77194799999999997        2.7245672925471318       -2.2996240923713018       -4.5368613951786614                0           0           0
          42           1  0.74873199999999995        3.6637399459733260       -3.3049416405235115       -5.1921356630553257                0           0           0
          43           1   1.0263439999999999        4.5033158195931193       -3.2519029969898132       -4.7622828411005322                0           0           0
          44           1  0.81308199999999997        4.5357436164280784       -2.5167320882268265       -5.4258451737994795                0           0           0
          45           1   1.1161060000000000        3.6529021685490815       -2.3556629412938399       -4.9577200680077862                0           0           0
          46           1   1.2125560000000000        5.4068608631113175       -2.4190916305038037       -4.8845540619099337                0           0           0
          47           1  0.74192100000000005       -4.9834653404206088       -2.0364066364084663       -5.3612591784345680                0           0           0
          48           1  0.91800800000000005       -4.1450970794134392       -1.5509852700837490       -5.5026998535098572                0           0           0
          49           1  0.83222700000000005       -3.2310392822732026       -1.9449087624987116       -5.2778595178665393                0           0           0
          50           1   1.0095200000000000       -2.5260161668367198       -1.2185174348967420       -4.8848867909869345                0           0           0
          51           1   1.4893410000000000       -2.1367016642833505       -2.1866969112934438       -5.5802526032994022                0           0           0
          52           1   1.2179240000000000       -1.3371952458316825       -1.3148706499461964       -4.7731596889881249                0           0           0
          53           1   1.0644769999999999      -0.21506361826707021       -1.6504187961192471       -5.2245745049588939                0           0           0
          54           1   1.3780330000000001       0.97088089415679590       -1.2763254668654058       -5.0285653629176270                0           0           0
          55           1   1.0451729999999999        2.1548605546691704       -1.4320464056064353       -4.8219656815925713                0           0           0
          56           1  0.79520100000000005        3.6443760600255679       -1.3684394702085259       -5.2505093635602389                0           0           0
          57           1   1.0204660000000001        4.4559548362299175       -1.5647997954092308       -4.6065172093758990                0           0           0
          58           1  0.80856499999999998        5.3529630750545607       -1.3718055951450729       -5.0233230001327502                0           0           0
          59           1   1.3538969999999999       -5.0485227035281417       -1.0663889863555731       -4.9818916737480254                0           0           0
          60           1  0.75854699999999997       -4.0577682268136792      -0.67574116929730899       -5.1864687964398550                0           0           0
          61           1  0.73175199999999996       -2.4326294945537539      -0.42765358123940356       -5.3686919352303528                0           0           0
          62           1   1.0328729999999999       -3.2223565955494831      -0.31638223873632842       -4.8615722699391259                0           0           0
          63           1  0.75083299999999997       -1.6049005297980354      -0.29474191285556550       -5.2692085133912716                0           0           0
          64           1  0.82179500000000005       -1.8884579344827372       -1.0730480990968951       -5.6621157520995347                0           0           0
          65           1  0.90665300000000004      -8.77831695757702590E-003 -0.65409607208112241       -4.8695359230748041                0           0           0
          66           1  0.88653700000000002      -0.93495446449715480      -0.29882456164748206       -4.6188329395598346                0           0           0
          67           1   1.1960150000000001       0.61591893223195271      -5.75268413758376340E-002  -5.5087512030025403                0           0           0
          68           1   1.0855290000000000        1.7625455897982985      -0.25945449889894512       -4.9771598672063355                0           0           0
          69           1  0.97821599999999997        2.8751411961078954      -0.73785839622943961       -5.2572230922835566                0           0           0
          70           1   1.4363210000000000        3.8768957057027169      -0.46502594370821182       -4.6841886376967228                0           0           0
          71           1   1.1656560000000000        5.2202307780483448      -0.35550625480908327       -4.9026680541786831                0           0           0
          72           1   1.0241950000000000       -5.1426683065873080       6.09315748774656996E-002  -5.4472876833300861                0           0           0
          73           1  0.83424600000000004       -4.6106196146968550       0.76670226612288062       -4.9652969170914547                0           0           0
          74           1   1.2242780000000000       -5.7168123549676402       0.90384702408216278       -4.8370180637622218                0           0           0
          75           1   1.2615920000000000       -3.9361289320301522       0.26684062855066770       -5.6891082258130217                0           0           0
          76           1  0.96946900000000003       -2.7351715583303173       0.42700980111574705       -5.5148811978044012                0           0           0
          77           1   1.0105480000000000       -3.3817999163629406       0.86024987787474139       -4.7519265834399844                0           0           0
          78           1   1.1696240000000000       -1.6375945411809871       0.71703996486424337       -5.3748090634875965                0           0           0
          79           1  0.91265600000000002       -2.2997402497196955        1.0199185731606173       -4.5821368157303377                0           0           0
          80           1  0.77751099999999995      -0.66523759329098109       0.45544755484639321       -5.3569579801715497                0           0           0
          81           1  0.88239800000000002       0.43409782247687811        1.0349018148780491       -5.3368000684483183                0           0           0
          82           1  0.79924200000000001        1.0790123046070690       0.44403604765149307       -4.6723956098999864                0           0           0
          83           1   1.1011640000000000        1.4553924494021802       0.81783918390041954       -5.6069011567912774                0           0           0
          84           1   1.4763390000000001        2.1776416218251349       0.88649853860106020       -4.5380994033580304                0           0           0
          85           1  0.85063500000000003        2.9578496523999043       0.18632516712873670       -4.8872384014790455                0           0           0
          86           1  0.83979999999999999        3.6448517418311948       0.20968481880361445       -5.5425952071008737                0           0           0
          87           1   1.1119710000000000        4.4795553877993761       0.66361282960041734       -5.0008543600980406                0           0           0
          88           1  0.92940100000000003       -5.4548915097855710        1.9601246100638106       -5.0998676499663604                0           0           0
          89           1  0.98624599999999996       -4.6148175667298021        2.3585576352341793       -5.6265820956352099                0           0           0
          90           1  0.88377099999999997       -3.8553714977331506        1.4273107735962522       -5.5089230042887483                0           0           0
          91           1   1.4289920000000000       -4.4179472527997081        1.7664866922669464       -4.5647755104544361                0           0           0
          92           1   1.2863240000000000       -2.6707205764052064        1.6186507657266098       -5.4889339486398088                0           0           0
          93           1  0.83280200000000004       -3.2637920460839025        1.8640036156607742       -4.5908844374817734                0           0           0
          94           1  0.91532000000000002       -1.5855645115840797        1.8525321538124730       -5.2077839661496412                0           0           0
          95           1   1.0549850000000001      -0.61597789983293083        1.4265131258580555       -5.3308376728366653                0           0           0
          96           1   1.4844250000000001       0.40771780644534150        2.1881544904164105       -5.4384181430520124                0           0           0
          97           1  0.86414400000000002        1.4771765907584911        1.8106064053858688       -5.3065240830930032                0           0           0
          98           1   1.3125690000000001        2.4437310602973294        2.2793527682607735       -5.1469029568714122                0           0           0
          99           1  0.82318199999999997        2.3819926924852250        1.2548760975601621       -5.6230280441648013                0           0           0
         100           1   1.2526790000000001        3.4018816635913467        1.2320596319395074       -5.3634813798806036                0           0           0
         101           1   1.3715560000000000        4.6954115012205069        1.9439802461192093       -5.2153350388724791                0           0           0
         102           1   1.1018300000000001       -5.2693565885738840        2.9227759471791916       -4.6578639328900220                0           0           0
         103           1   1.0932630000000001       -3.5668486364906862        2.4644041950734312       -5.3438804232368522                0           0           0
         104           1  0.91189900000000002       -4.1199302138701688        2.8855580712124489       -4.5129981839588780                0           0           0
         105           1  0.73728300000000002       -2.6117673164856106        2.6425022403315381       -5.2598915766758836                0           0           0
         106           1  0.79696199999999995       -3.3075793406168139        3.4070924852588647       -5.2516732790783847                0           0           0
         107           1   1.2884510000000000       -1.6758345199117368        2.9550374986112367       -4.9481788847158938                0           0           0
         108           1  0.90628100000000000      -0.72678342709325339        2.3965158862883840       -4.7464090487594781                0           0           0
         109           1   1.2439519999999999      -0.38437274132158006        3.3549348559534682       -5.2018824418958562                0           0           0
         110           1  0.85372000000000003      -0.78095144932029648        2.4259803462270941       -5.7222297861162943                0           0           0
         111           1  0.79320299999999999       0.61403658374159953        3.3014564719230446       -5.6002288017978552                0           0           0
         112           1  0.83657099999999995        1.1752229450534708        2.4690993914333053       -4.6487173780288682                0           0           0
         113           1  0.79898800000000003        2.9615465922369459        3.1891938800259112       -4.7862201917224878                0           0           0
         114           1  0.97961900000000002        3.5967002638375458        2.3812527250917217       -4.7889132206807368                0           0           0
         115           1  0.80490099999999998        4.3410108625405428        2.9623445237969293       -5.0318704901150602                0           0           0
         116           1  0.76785300000000001        5.2775787413582389        2.8444271563578969       -5.1953782254488141                0           0           0
         117           1  0.78729899999999997       -4.9513774720065262        4.4971728515671270       -5.4852620253126174                0           0           0
         118           1  0.86933700000000003       -5.5478433401406662        3.5904543992174389       -5.4409477230010168                0           0           0
         119           1   1.4795579999999999       -4.3742040781897922        3.5635081722164657       -5.4159341467864444                0           0           0
         120           1   1.1486650000000000       -3.1843553085766865        4.3862318137022491       -5.0823910104956491                0           0           0
         121           1  0.75789499999999999       -2.3886658819152324        3.7455423905386400       -4.9457642600556415                0           0           0
         122           1  0.80026200000000003       -2.3217773282711596        4.4466192645294829       -5.6131171437348328                0           0           0
         123           1  0.84546600000000005       -1.5280246069882759        3.9564869376918104       -5.5388328035018013                0           0           0
         124           1  0.74727200000000005       -1.2037352869448803        3.8595851107044936       -4.6786184957607713                0           0           0
         125           1   1.1842509999999999       -1.9084351615299897        4.6038888346575497       -4.6937442036962880                0           0           0
         126           1   1.0372950000000001      -0.65628401595106656        4.5105330350572341       -5.4101628379596383                0           0           0
         127           1  0.75573400000000002       0.26118880920484333        4.1584413645210780       -5.1424786441738810                0           0           0
         128           1  0.90554000000000001        1.2418499400211980        4.0839028832328310       -5.6187125994897373                0           0           0
         129           1  0.73019400000000001        1.8123653047097807        4.2111682551147869       -4.6968414244112546                0           0           0
         130           1   1.1501790000000001        2.1530348791644576        3.5463189722474375       -5.3293692965990553                0           0           0
         131           1   1.0361840000000000        3.0268167870000386        4.2485108522511972       -5.0783044114074132                0           0           0
         132           1  0.78415599999999996        3.9322638111113388        3.9067575352614927       -5.1486717695194208                0           0           0
         133           1  0.84128000000000003        4.6854808987668974        4.1808362246860469       -4.6295737999523094                0           0           0
         134           1   1.3047489999999999        4.8116671344255213        3.6874313748568408       -5.6348396090724444                0           0           0
         135           1  0.87163800000000002       -5.3666013127799799        5.3272558353565511       -5.1915630910733874                0           0           0
         136           1   1.1479109999999999       -4.3643507068474401        4.7524043467989081       -4.6916826310148725                0           0           0
         137           1  0.85967499999999997       -3.6135513418564478        5.3550412136757615       -5.0949240642210132                0           0           0
         138           1  0.80051799999999995       -4.4925539340026015        5.3886337783917178       -5.5095497302582839                0           0           0
         139           1   1.1004989999999999       -2.5981703625934642        5.4393577482494191       -5.4119664995970842                0           0           0
         140           1  0.95438500000000004       -1.5518367826290538        5.6725879540894528       -5.1914408738068829                0           0           0
         141           1  0.98720399999999997      -0.33534683243557950        5.6309602743623373       -5.5527598795193871                0           0           0
         142           1  0.86126300000000000       0.22629963628260263        5.0139055069978813       -4.8428798912742366                0           0           0
         143           1  0.79245800000000000        1.0918787668321270        4.6976455322738406       -4.7992304083509234                0           0           0
         144           1   1.2686580000000001        1.9931253292179631        4.9423262074842054       -5.3308098395984054                0           0           0
         145           1  0.86478800000000000        2.9189382091146197        5.2678152412342136       -4.8609342801695767                0           0           0
         146           1  0.73688299999999995        3.1232420177143840        5.0162638781923992       -5.7102350884223663                0           0           0
         147           1   1.4304490000000001        3.9927442393181689        4.9934351210685612       -4.9124059452569453                0           0           0
         148           1  0.76117100000000004        5.1022370152373266        5.0299873999287605       -5.0205017169054544                0           0           0
         149           1  0.81904200000000005        4.6148396224367421        4.8784250745595621        5.6750026479049644                0           0           0
         150           1  0.74355499999999997       -5.1779004268935394       -5.2294842220466329       -3.7831901553632559                0           0           0
         151           1  0.76271500000000003       -3.8972598425009073       -5.0036617960670497       -3.9542542420104003                0           0           0
         152           1  0.76898400000000000       -2.4474509194635479       -4.7722903412889384       -4.0542975994622603                0           0           0
         153           1   1.0236600000000000       -3.1895291214192971       -5.5580105890811229       -3.5123187356445489                0           0           0
         154           1  0.73077700000000001       -1.4914761269101859       -4.9062234372135203       -3.7583867869035235                0           0           0
         155           1   1.1202880000000000       -2.0132910551152299       -5.6660846201144732       -4.1828005081368502                0           0           0
         156           1  0.76807899999999996       -1.1689711192626175       -5.1564604478177323       -4.4913068067786011                0           0           0
         157           1   1.3321630000000000      -0.46850539866467233       -4.9657277644160249       -3.6759650725527480                0           0           0
         158           1  0.80179999999999996       0.67142849976431318       -4.9361738568105888       -3.9317899295482430                0           0           0
         159           1  0.94373200000000002        1.6251733755976012       -5.0662945473664927       -4.0305578223786434                0           0           0
         160           1  0.95481799999999994        3.1722683722924891       -4.6783320513560662       -4.5092704316929941                0           0           0
         161           1   1.4699640000000000        2.7720599491278257       -5.6458724117578694       -3.8593036765983504                0           0           0
         162           1   1.3309860000000000        4.2475146554169410       -5.0924654877698208       -4.0888870857375119                0           0           0
         163           1   1.1672389999999999        5.5659254277306989       -5.4976305122332256       -4.4552964808886397                0           0           0
         164           1  0.96901499999999996       -5.4362657699173393       -4.3993994294152827       -4.4214731689862123                0           0           0
         165           1   1.1382319999999999       -4.6428872176824116       -4.3879202747187502       -3.6076612472653733                0           0           0
         166           1   1.0295930000000000       -5.6912952748722931       -3.7210341757007535       -3.5818300491752528                0           0           0
         167           1  0.75638000000000005       -4.0949360418581628       -3.5641302567004582       -3.8326188475632987                0           0           0
         168           1   1.4976440000000000       -3.2466860607502306       -4.2015544498435160       -3.6114832181340435                0           0           0
         169           1   1.3677140000000001       -1.7364675864239443       -4.0025600527991152       -4.2358992934136745                0           0           0
         170           1  0.87362600000000001      -0.74602476292059450       -3.9588026530397480       -4.7346116210676765                0           0           0
         171           1  0.77448300000000003      -0.48508775774760338       -3.9211777884784396       -3.6419075828561729                0           0           0
         172           1   1.1426689999999999       0.20164195910277893       -4.1792752874484869       -4.4305769034349689                0           0           0
         173           1   1.6053649999999999        1.3754536608715693       -3.8482079692594953       -3.7813653156652385                0           0           0
         174           1  0.81254700000000002        2.3833323179738066       -4.4091124993251487       -4.0205271970798853                0           0           0
         175           1   1.5251770000000000        2.8621538801328974       -3.4529240618923516       -4.4878619847792276                0           0           0
         176           1  0.90739599999999998        3.8957457276671104       -3.9452786719272930       -4.1703303620820371                0           0           0
         177           1  0.91723800000000000        3.4665999248573058       -3.3076744607071800       -3.4528169802354176                0           0           0
         178           1  0.98055700000000001        4.9396917976169732       -4.1446591727508251       -4.2249100222601879                0           0           0
         179           1   1.4378010000000001       -4.9284930711836061       -3.2552033744540210       -4.4086519404082125                0           0           0