LAMMPS data file via write_data, version 17 Nov 2016, timestep = 0
      
  1500 atoms
      
1 atom types
  -5.7235712129999996        5.7235712129999996      xlo xhi
  -5.7235712129999996        5.7235712129999996      ylo yhi
  -5.7235712129999996        5.7235712129999996      zlo zhi
Masses
      
1 1
      
Pair Coeffs # lj/poly
      
                               1 1.0 1.0 2.025 1.25 0.2
      
Atoms # charge
      
           1           1  0.82965299999999997       -5.5446654425054742       -4.8805689470219020       -5.2638323547428207                0           0           0
           2           1   1.5413479999999999       -4.5772045443916314       -5.2706240246537508       -4.7540657608530372                0           0           0
           3           1  0.86062700000000003       -3.7985115695763625       -4.7713768999003001       -5.4896832620461540                0           0           0
           4           1   1.2325940000000000       -3.1696495541698870       -5.2176856357056245       -4.6523777302796185                0           0           0
           5           1  0.92110899999999996       -2.0784681442012882       -4.9018480597372207       -4.9086540256659443                0           0           0
           6           1   1.5043869999999999       -1.0385980936703643       -4.7546371201069721       -5.4729034242304140                0           0           0
           7           1  0.88103100000000001      -0.20279984237941218       -5.1726095067428437       -4.7415464143766943                0           0           0
           8           1  0.92227999999999999       0.28284837205915281       -4.6679687689343368       -5.4694978425209539                0           0           0
           9           1   1.5129459999999999       0.93422583313716689       -5.5193808286269945       -4.9783868130212916                0           0           0
          10           1  0.87097899999999995        2.1151543442844050       -5.5807077191357939       -4.7741038346651736                0           0           0
          11           1  0.82823300000000000        1.9386271951907377       -5.3954032422024687       -5.6976719553248518                0           0           0
          12           1   1.3333429999999999        3.0337437295190490       -5.3254759981428395       -5.5315145536045067                0           0           0
          13           1  0.81986499999999995        4.1250145338014370       -5.3063887632268365       -5.3193267909471453                0           0           0
          14           1  0.74748000000000003        3.5250074059794745       -5.5416063964915345       -4.6437494573265212                0           0           0
          15           1  0.86770400000000003        4.9211646689453588       -4.8179950660466373       -4.9786420184675597                0           0           0
          16           1  0.73948999999999998        4.6915079830051170       -5.6961922865877845       -4.7962195995736998                0           0           0
          17           1   1.1174949999999999       -4.8015147821435296       -4.1486996970460863       -5.5191372346980527                0           0           0
          18           1   1.0167780000000000       -3.9984253174439344       -4.1427018186364410       -4.6455457652125371                0           0           0
          19           1   1.0699300000000000       -2.8263622875041778       -4.0592426972954048       -4.8348810202765176                0           0           0
          20           1  0.76943799999999996       -1.9485599359282224       -4.0837912441191833       -5.3130921721262938                0           0           0
          21           1   1.0829869999999999      -0.25477284172222703       -3.7672466376697242       -5.6918281255597787                0           0           0
          22           1   1.3859269999999999       0.96582780629184217       -3.6920108748848008       -5.3562937043973857                0           0           0
          23           1  0.77240699999999995        1.1031862592517294       -4.5044959511898224       -4.6436148402120416                0           0           0
          24           1   1.1917739999999999        2.0316721239707949       -4.5401208484672591       -5.0015959203049940                0           0           0
          25           1  0.76583000000000001        1.8034564280421792       -3.5398495874912332       -4.7333972734048526                0           0           0
          26           1  0.97774899999999998        2.1615230913925201       -3.5648621078628717       -5.6177632425607325                0           0           0
          27           1  0.83108000000000004        2.9358100353141801       -4.1985787539640587       -5.3741279569714528                0           0           0
          28           1   1.2215430000000000        3.9899921928165121       -4.2743091724840010       -5.2328147353164578                0           0           0
          29           1   1.3806490000000000        5.3901021602704589       -3.8301204554963988       -5.3246661403874525                0           0           0
          30           1   1.0400879999999999       -5.1685660357250773       -2.9698503210502549       -5.6245363761692779                0           0           0
          31           1  0.77126099999999997       -4.2841125275526419       -3.2882776631320354       -5.2646215064502426                0           0           0
          32           1  0.92384800000000000       -4.2800688852085589       -2.3931914569162265       -4.9328834351062536                0           0           0
          33           1  0.88862900000000000       -2.3161490102468307       -3.1299942326610211       -4.8791607733382270                0           0           0
          34           1  0.86158199999999996       -3.0695349831423879       -2.8364214112525388       -5.5337684361967838                0           0           0
          35           1   1.1209890000000000       -1.3313689085029470       -3.3135646678745565       -5.3222585064468042                0           0           0
          36           1   1.2420370000000001      -0.20827175301216805       -2.9464771912397962       -4.7331109268599256                0           0           0
          37           1  0.88274100000000000       -1.0383935175875738       -2.3143590950540021       -5.1641917721491373                0           0           0
          38           1   1.0668899999999999       0.69620340794958935       -2.4520096379091267       -5.4172980403353259                0           0           0
          39           1   1.1892499999999999        1.8672521730588665       -2.5788758450950717       -5.0898078397975928                0           0           0
          40           1  0.78319600000000000        2.8138402550051396       -2.8162767317095372       -5.3722302859901809                0           0           0
          41           1  0.77194799999999997        2.7172751129164503       -2.2985670998101471       -4.5382727996114332                0           0           0
          42           1  0.74873199999999995        3.6785737009094195       -3.3188558608284682       -5.1728652937076012                0           0           0
          43           1   1.0263439999999999        4.5223543297903284       -3.2080735523358728       -4.7448606264711906                0           0           0
          44           1  0.81308199999999997        4.5546886877719590       -2.4876240057538732       -5.4115238350406178                0           0           0
          45           1   1.1161060000000000        3.6391348730905975       -2.3714503206176976       -4.9669826116296711                0           0           0
          46           1   1.2125560000000000        5.4701430607930206       -2.4268871723626408       -4.9123039479329460                0           0           0
          47           1  0.74192100000000005       -5.0008076383450613       -2.0563612054606142       -5.3650419650081353                0           0           0
          48           1  0.91800800000000005       -4.1476165404599143       -1.5551163284115468       -5.5037389212724310                0           0           0
          49           1  0.83222700000000005       -3.2329020545292004       -1.9489208254627686       -5.2782325390140103                0           0           0
          50           1   1.0095200000000000       -2.5299932097244877       -1.2201305318682616       -4.8837608852485523                0           0           0
          51           1   1.4893410000000000       -2.1368620809989811       -2.1875327322406615       -5.5800349124813273                0           0           0
          52           1   1.2179240000000000       -1.3397734340076637       -1.3150666700637670       -4.7727638891155753                0           0           0
          53           1   1.0644769999999999      -0.21700287732280454       -1.6496429895427180       -5.2242348071974209                0           0           0
          54           1   1.3780330000000001       0.96910508787910299       -1.2765270719630815       -5.0286191904201205                0           0           0
          55           1   1.0451729999999999        2.1532469784733781       -1.4322965782245909       -4.8228444188906119                0           0           0
          56           1  0.79520100000000005        3.6404499603963991       -1.3784265813134731       -5.2474863879357141                0           0           0
          57           1   1.0204660000000001        4.4254465955518327       -1.6002100642139672       -4.5970375807442325                0           0           0
          58           1  0.80856499999999998        5.3297702248337178       -1.3831698312676624       -5.0099796307856774                0           0           0
          59           1   1.3538969999999999       -5.0615138766719783       -1.0815801028196512       -4.9874399738242801                0           0           0
          60           1  0.75854699999999997       -4.0650071417674738      -0.68096930544736356       -5.1852590702491437                0           0           0
          61           1  0.73175199999999996       -2.4354945482519694      -0.42934239763424742       -5.3675076459234141                0           0           0
          62           1   1.0328729999999999       -3.2272003245719989      -0.31928863483592718       -4.8616953966683774                0           0           0
          63           1  0.75083299999999997       -1.6074191443374186      -0.29617557787170590       -5.2683119905673372                0           0           0
          64           1  0.82179500000000005       -1.8915685706695280       -1.0742721811757825       -5.6610959710179189                0           0           0
          65           1  0.90665300000000004      -1.01732464278754264E-002 -0.65366114517297458       -4.8690975530620184                0           0           0
          66           1  0.88653700000000002      -0.93694588181766214      -0.29928249240689730       -4.6183939995035557                0           0           0
          67           1   1.1960150000000001       0.61417399779538950      -5.71897831682814939E-002  -5.5087031853431023                0           0           0
          68           1   1.0855290000000000        1.7605212091839038      -0.25952424462103885       -4.9765413145008672                0           0           0
          69           1  0.97821599999999997        2.8750135033106101      -0.73967835677071747       -5.2586706360827851                0           0           0
          70           1   1.4363210000000000        3.8773210728653353      -0.47183221099336947       -4.6852402019456356                0           0           0
          71           1   1.1656560000000000        5.2173801148817276      -0.35990202020438122       -4.9079466896877166                0           0           0
          72           1   1.0241950000000000       -5.1391186214607014       5.65352420660323318E-002  -5.4426182397930427                0           0           0
          73           1  0.83424600000000004       -4.6090925822815034       0.76637100033331063       -4.9653353265710161                0           0           0
          74           1   1.2242780000000000       -5.7175808793760901       0.90170937084159331       -4.8389786499282126                0           0           0
          75           1   1.2615920000000000       -3.9365846281935419       0.26457009521698360       -5.6893001069077140                0           0           0
          76           1  0.96946900000000003       -2.7363737041771508       0.42535475466001582       -5.5139900998301243                0           0           0
          77           1   1.0105480000000000       -3.3827384561798137       0.85865464001405289       -4.7515855950115400                0           0           0
          78           1   1.1696240000000000       -1.6384473224370240       0.71596421373151742       -5.3747972685570966                0           0           0
          79           1  0.91265600000000002       -2.3003292295281828        1.0194744495025416       -4.5823041165084142                0           0           0
          80           1  0.77751099999999995      -0.66568939758655166       0.45593905923315958       -5.3570126243663969                0           0           0
          81           1  0.88239800000000002       0.43218807991173236        1.0349569277184161       -5.3365139794654439                0           0           0
          82           1  0.79924200000000001        1.0774202706215545       0.44395232441809629       -4.6720759767127920                0           0           0
          83           1   1.1011640000000000        1.4536084998982055       0.81851862212324100       -5.6063805537930236                0           0           0
          84           1   1.4763390000000001        2.1773265960715342       0.88627904287364512       -4.5382722157585844                0           0           0
          85           1  0.85063500000000003        2.9556708909651199       0.18244420739985578       -4.8850941130843193                0           0           0
          86           1  0.83979999999999999        3.6401311136200878       0.21028617385733561       -5.5404036790679738                0           0           0
          87           1   1.1119710000000000        4.4776343910146110       0.66119012903302732       -5.0023693299755170                0           0           0
          88           1  0.92940100000000003       -5.4536668321182846        1.9596454853696894       -5.0980797488845671                0           0           0
          89           1  0.98624599999999996       -4.6148399539963068        2.3574205879167121       -5.6267543892305154                0           0           0
          90           1  0.88377099999999997       -3.8554080738980865        1.4264055286122739       -5.5085917043722636                0           0           0
          91           1   1.4289920000000000       -4.4181034538967872        1.7655976238881470       -4.5643657208821411                0           0           0
          92           1   1.2863240000000000       -2.6714731180369902        1.6175682788754111       -5.4889489388633814                0           0           0
          93           1  0.83280200000000004       -3.2648674032375533        1.8630468708827017       -4.5913559513438278                0           0           0
          94           1  0.91532000000000002       -1.5867863381122271        1.8517083678209918       -5.2076805986266628                0           0           0
          95           1   1.0549850000000001      -0.61682328552145815        1.4268606498990435       -5.3305008442340540                0           0           0
          96           1   1.4844250000000001       0.40753813520752669        2.1881819308254897       -5.4385924216056853                0           0           0
          97           1  0.86414400000000002        1.4769997582575272        1.8111234932519746       -5.3062648273866930                0           0           0
          98           1   1.3125690000000001        2.4432768368885647        2.2799468285434976       -5.1466232293247423                0           0           0
          99           1  0.82318199999999997        2.3804431884880177        1.2559751712140388       -5.6227009446661347                0           0           0
         100           1   1.2526790000000001        3.4007118521318809        1.2333121564994585       -5.3640777947675273                0           0           0
         101           1   1.3715560000000000        4.6953223573901770        1.9431410662263131       -5.2151138880120245                0           0           0
         102           1   1.1018300000000001       -5.2699644216397132        2.9232478340231172       -4.6579646641834174                0           0           0
         103           1   1.0932630000000001       -3.5671138654393788        2.4637274300652781       -5.3441388080914969                0           0           0
         104           1  0.91189900000000002       -4.1204195890768220        2.8848258364326611       -4.5130833076308248                0           0           0
         105           1  0.73728300000000002       -2.6119997710614502        2.6415122052134983       -5.2599648285553213                0           0           0
         106           1  0.79696199999999995       -3.3073793202722719        3.4061443627225518       -5.2521659151394964                0           0           0
         107           1   1.2884510000000000       -1.6761021366169420        2.9543660818703845       -4.9483549376246625                0           0           0
         108           1  0.90628100000000000      -0.72747770554332902        2.3962675442722734       -4.7458886745249558                0           0           0
         109           1   1.2439519999999999      -0.38456830530853825        3.3547518656971942       -5.2018799917562699                0           0           0
         110           1  0.85372000000000003      -0.78134172995186013        2.4260646835740882       -5.7220283341775149                0           0           0
         111           1  0.79320299999999999       0.61366533960544700        3.3019051364317917       -5.5999223742268924                0           0           0
         112           1  0.83657099999999995        1.1749189625180572        2.4692496128884436       -4.6486222486017761                0           0           0
         113           1  0.79898800000000003        2.9614623851846051        3.1889747843038432       -4.7860953503370993                0           0           0
         114           1  0.97961900000000002        3.5965596357221745        2.3806436820198318       -4.7887513336482854                0           0           0
         115           1  0.80490099999999998        4.3406561388433325        2.9617173286421217       -5.0325931291317278                0           0           0
         116           1  0.76785300000000001        5.2765778484860544        2.8440643003146189       -5.1955186162175249                0           0           0
         117           1  0.78729899999999997       -4.9511624762862256        4.4952683839617702       -5.4855640110654278                0           0           0
         118           1  0.86933700000000003       -5.5475911687325068        3.5911289532183961       -5.4411332438648730                0           0           0
         119           1   1.4795579999999999       -4.3739400812022966        3.5623679124026655       -5.4162905726331454                0           0           0
         120           1   1.1486650000000000       -3.1838092665562234        4.3850284861464726       -5.0830031337197097                0           0           0
         121           1  0.75789499999999999       -2.3885487074407874        3.7446515993677227       -4.9460425303778983                0           0           0
         122           1  0.80026200000000003       -2.3208793585743193        4.4452869328337759       -5.6136019713774008                0           0           0
         123           1  0.84546600000000005       -1.5266808092733939        3.9559505739083640       -5.5388659571027317                0           0           0
         124           1  0.74727200000000005       -1.2034746557825278        3.8586288060834111       -4.6784974064267892                0           0           0
         125           1   1.1842509999999999       -1.9078945198850761        4.6028452401579028       -4.6939106184747574                0           0           0
         126           1   1.0372950000000001      -0.65496946973142123        4.5105394020408429       -5.4105025774837081                0           0           0
         127           1  0.75573400000000002       0.26147703415777013        4.1585246958267934       -5.1424378737917813                0           0           0
         128           1  0.90554000000000001        1.2423269171830222        4.0838433550845874       -5.6184255876243219                0           0           0
         129           1  0.73019400000000001        1.8127382339838878        4.2115312366898419       -4.6968192979144474                0           0           0
         130           1   1.1501790000000001        2.1535233378438301        3.5468509454054526       -5.3294740078344844                0           0           0
         131           1   1.0361840000000000        3.0270881768140505        4.2493501955960600       -5.0779472257276153                0           0           0
         132           1  0.78415599999999996        3.9322296901329459        3.9069173684938487       -5.1485795764917750                0           0           0
         133           1  0.84128000000000003        4.6855583558357843        4.1806614765911032       -4.6293700607832404                0           0           0
         134           1   1.3047489999999999        4.8116860919964122        3.6874884668184400       -5.6346308999623442                0           0           0
         135           1  0.87163800000000002       -5.3638899631265655        5.3253400533170456       -5.1921840457834483                0           0           0
         136           1   1.1479109999999999       -4.3636591235435516        4.7511023089005011       -4.6923486740619120                0           0           0
         137           1  0.85967499999999997       -3.6125175180890086        5.3538921454687447       -5.0956161576024295                0           0           0
         138           1  0.80051799999999995       -4.4902317721154059        5.3888732251308671       -5.5096143471234535                0           0           0
         139           1   1.1004989999999999       -2.5972110209800667        5.4373921260224343       -5.4122614682956112                0           0           0
         140           1  0.95438500000000004       -1.5511849508183024        5.6717998387175612       -5.1919168119233499                0           0           0
         141           1  0.98720399999999997      -0.33281647006970250        5.6309224426624702       -5.5522143580066814                0           0           0
         142           1  0.86126300000000000       0.22709700401988986        5.0143643429822244       -4.8430404680846184                0           0           0
         143           1  0.79245800000000000        1.0922759530243304        4.6975369710843644       -4.7997628226364615                0           0           0
         144           1   1.2686580000000001        1.9935980724591520        4.9428338880474580       -5.3306548770377598                0           0           0
         145           1  0.86478800000000000        2.9197166294843040        5.2693497186337073       -4.8621827865858611                0           0           0
         146           1  0.73688299999999995        3.1270583905918077        5.0167250422240652       -5.7100936703982628                0           0           0
         147           1   1.4304490000000001        3.9933476341675700        4.9936269396068589       -4.9127410361085246                0           0           0
         148           1  0.76117100000000004        5.1027989112794856        5.0294687603330175       -5.0203847716409351                0           0           0
         149           1  0.81904200000000005        4.6155958989701684        4.8797295035453558        5.6747928735414810                0           0           0
         150           1  0.74355499999999997       -5.1790446623923305       -5.2304684891338669       -3.7806147644308763                0           0           0
         151           1  0.76271500000000003       -3.8955696254881551       -5.0049347409627325       -3.9548975630758889                0           0           0
         152           1  0.76898400000000000       -2.4462561338542015       -4.7737861480607648       -4.0547043344938967                0           0           0
         153           1   1.0236600000000000       -3.1883872350705800       -5.5597149002151101       -3.5135993957394032                0           0           0
         154           1  0.73077700000000001       -1.4913338471475930       -4.9070252359680264       -3.7586874410077500                0           0           0
         155           1   1.1202880000000000       -2.0130241531933084       -5.6676085595159753       -4.1830665417113480                0           0           0
         156           1  0.76807899999999996       -1.1691489346716510       -5.1569454988511625       -4.4918004056002356                0           0           0
         157           1   1.3321630000000000      -0.46831973875379251       -4.9660093852580713       -3.6762806253399845                0           0           0
         158           1  0.80179999999999996       0.67293250025403228       -4.9356808787542681       -3.9318745635182246                0           0           0
         159           1  0.94373200000000002        1.6264364841772778       -5.0658263951971669       -4.0313631924800832                0           0           0
         160           1  0.95481799999999994        3.1767029004665126       -4.6758390019310090       -4.5078628908696485                0           0           0
         161           1   1.4699640000000000        2.7728710719603136       -5.6453298266385037       -3.8602867777308472                0           0           0
         162           1   1.3309860000000000        4.2495472745405465       -5.0909613796610822       -4.0892875244308717                0           0           0
         163           1   1.1672389999999999        5.5683452479108446       -5.5024062205171926       -4.4547905150138005                0           0           0
         164           1  0.96901499999999996       -5.4416249675966624       -4.4024829912114445       -4.4190452242894001                0           0           0
         165           1   1.1382319999999999       -4.6420024631129575       -4.3896273231687859       -3.6092690993080012                0           0           0
         166           1   1.0295930000000000       -5.6940676428175516       -3.7213133640488878       -3.5817563089886493                0           0           0
         167           1  0.75638000000000005       -4.0896991963402272       -3.5662021202059417       -3.8321679739376635                0           0           0
         168           1   1.4976440000000000       -3.2449116270411791       -4.2026503545797507       -3.6125549067991671                0           0           0
         169           1   1.3677140000000001       -1.7359244238420746       -4.0030946093719875       -4.2359017242363555                0           0           0
         170           1  0.87362600000000001      -0.74561700520445129       -3.9596315828033943       -4.7349828449115172                0           0           0
         171           1  0.77448300000000003      -0.48501225492888889       -3.9217379788220468       -3.6416972460573960                0           0           0
         172           1   1.1426689999999999       0.20232099886784560       -4.1795750684311628       -4.4308455124542441                0           0           0
         173           1   1.6053649999999999        1.3749059038621585       -3.8484778469481569       -3.7812164672533246                0           0           0
         174           1  0.81254700000000002        2.3845071640641926       -4.4091178734841439       -4.0210699965237122                0           0           0
         175           1   1.5251770000000000        2.8582798944747196       -3.4517387129340098       -4.4876583227049629                0           0           0
         176           1  0.90739599999999998        3.8973553516524788       -3.9366155745417331       -4.1710689732648056                0           0           0
         177           1  0.91723800000000000        3.4622816548678799       -3.3068396254629442       -3.4511322992878055                0           0           0
         178           1  0.98055700000000001        4.9349359790245071       -4.1355411474892829       -4.2285379967802506                0           0           0
         179           1   1.4378010000000001       -4.9219538976254862       -3.2642897143172598       -4.4084530849658119                0           0           0